   * xtb version 6.5.0 (746241f) compiled by 'ehlert@majestix' on 2022-05-15
          program call               : xtb -c 0 -u 0 e4_cl_uplike1.xyz --opt normal

   ID    Z sym.   atoms
    1    6 C      1, 2, 6, 8, 9, 12, 13, 15
    2    9 F      3, 14
    3    1 H      4, 10, 11, 16
    4   16 S      5, 7

          :  Hamiltonian                  GFN2-xTB          :
 * total energy  :   -33.3106449 Eh     change       -0.7949552E-10 Eh
 * total energy  :   -34.6023888 Eh     change       -0.1291744E+01 Eh
 * total energy  :   -34.8794125 Eh     change       -0.2770238E+00 Eh
 * total energy  :   -35.0136647 Eh     change       -0.1342521E+00 Eh
 * total energy  :   -35.0668192 Eh     change       -0.5315454E-01 Eh
 * total energy  :   -35.0835541 Eh     change       -0.1673488E-01 Eh
 * total energy  :   -35.0896205 Eh     change       -0.6066465E-02 Eh
 * total energy  :   -35.0928657 Eh     change       -0.3245118E-02 Eh
 * total energy  :   -35.0948141 Eh     change       -0.1948438E-02 Eh
 * total energy  :   -35.0954091 Eh     change       -0.5950311E-03 Eh
 * total energy  :   -35.0958095 Eh     change       -0.5530832E-05 Eh
 * total energy  :   -35.0958144 Eh     change       -0.4937796E-05 Eh
 * total energy  :   -35.0958242 Eh     change       -0.9794698E-05 Eh
 * total energy  :   -35.0958386 Eh     change       -0.1434336E-04 Eh
 * total energy  :   -35.0958481 Eh     change       -0.9520013E-05 Eh
 * total energy  :   -35.0958566 Eh     change       -0.8554342E-05 Eh
 * total energy  :   -35.0958652 Eh     change       -0.8581066E-05 Eh
 * total energy  :   -35.0958723 Eh     change       -0.7072592E-05 Eh
 * total energy  :   -35.0958762 Eh     change       -0.3932113E-05 Eh
   *** GEOMETRY OPTIMIZATION CONVERGED AFTER 27 ITERATIONS ***

 final structure:
================
16
 xtb: 6.5.0 (746241f)
C           -0.55074532088078        0.88217365482416       -0.00716313287570
C            0.02062535245480       -0.34952947736998        0.04362971468314
F            3.00019805887275        3.80251475952288       -0.02702155746926
H            6.80574347414682        1.33207435640475        0.20033716171761
S            4.60599411700134        0.30588966914320        0.16567466228281
C            5.76327009905524        1.57395748692492        0.15512635159385
S            0.60654303522477        2.15033204737541       -0.01593607415633
C            5.19238304219217        2.80504341630963        0.08654854189924
C            1.42389510600688       -0.26286761403031        0.07622366132568
H           -1.59351750065758        1.12473876814540       -0.04049545463177
H            5.72706251073849        3.73613607560588        0.06738094765980
C            1.92358159267784        1.01843627509431        0.05075661206710
C            3.78945148755695        2.71803719415687        0.04274693933773
F            2.21351458514221       -1.34808341130552        0.12823134757295
C            3.28957912596633        1.43696357087053        0.07658982608466
H           -0.51367876549825       -1.28091677167211        0.05767045290849

          :  Hamiltonian                  GFN2-xTB          :
         :: total energy             -35.095876233911 Eh    ::
         :: gradient norm              0.000303649793 Eh/a0 ::
         :: HOMO-LUMO gap              2.658906910080 eV    ::
         :: SCC energy               -35.490865963793 Eh    ::
         :: -> dispersion             -0.018425444586 Eh    ::
         :: repulsion energy           0.394998286465 Eh    ::

    * Orbital Energies and Occupations

         #    Occupation            Energy/Eh            Energy/eV
      -------------------------------------------------------------
         1        2.0000           -0.8255852             -22.4653
       ...           ...                  ...                  ...
        19        2.0000           -0.5119833             -13.9318
        20        2.0000           -0.5072321             -13.8025
        21        2.0000           -0.4965283             -13.5112
        22        2.0000           -0.4836509             -13.1608
        23        2.0000           -0.4834839             -13.1563
        24        2.0000           -0.4800915             -13.0640
        25        2.0000           -0.4714586             -12.8290
        26        2.0000           -0.4696279             -12.7792
        27        2.0000           -0.4569447             -12.4341
        28        2.0000           -0.4431633             -12.0591
        29        2.0000           -0.4110210             -11.1844
        30        2.0000           -0.4098196             -11.1518
        31        2.0000           -0.3849489             -10.4750 (HOMO)
        32                         -0.2872359              -7.8161 (LUMO)
        33                         -0.2380527              -6.4777
        34                         -0.2247048              -6.1145
        35                         -0.2133484              -5.8055
        36                         -0.1938705              -5.2755
        37                         -0.1641351              -4.4663
        38                         -0.1491128              -4.0576
        39                         -0.1172182              -3.1897
        40                         -0.0256165              -0.6971
        41                         -0.0063405              -0.1725
        42                          0.0052001               0.1415
       ...                                ...                  ...
        62                          0.6814814              18.5441
      -------------------------------------------------------------
                  HL-Gap            0.0977130 Eh            2.6589 eV

     #   Z          covCN         q      C6AA      α(0)
     1   6 C        2.952    -0.029    28.731     8.792
     2   6 C        3.091    -0.062    29.434     8.892
     3   9 F        0.786    -0.213    11.366     3.982
     4   1 H        0.927     0.063     2.169     2.303
     5  16 S        2.341     0.033   139.733    19.895
     6   6 C        2.952    -0.029    28.731     8.792
     7  16 S        2.341     0.033   139.734    19.895
     8   6 C        3.091    -0.062    29.434     8.892
     9   6 C        3.004     0.148    24.778     8.165
    10   1 H        0.926     0.063     2.169     2.303
    11   1 H        0.926     0.064     2.152     2.294
    12   6 C        3.006    -0.003    28.078     8.692
    13   6 C        3.004     0.148    24.777     8.165
    14   9 F        0.786    -0.213    11.366     3.982
    15   6 C        3.006    -0.003    28.078     8.692
    16   1 H        0.926     0.064     2.152     2.294

Wiberg/Mayer (AO) data.
largest (>0.10) Wiberg bond orders for each atom

     #   Z sym  total        # sym  WBO       # sym  WBO       # sym  WBO
 ---------------------------------------------------------------------------
     1   6 C    3.939 --     2 C    1.598     7 S    1.208    10 H    0.969
     2   6 C    3.984 --     1 C    1.598     9 C    1.270    16 H    0.962
     3   9 F    1.113 --    13 C    0.961
     4   1 H    0.996 --     6 C    0.969
     5  16 S    2.641 --     6 C    1.208    15 C    1.140
     6   6 C    3.939 --     8 C    1.598     5 S    1.208     4 H    0.969
     7  16 S    2.641 --     1 C    1.208    12 C    1.140
     8   6 C    3.984 --     6 C    1.598    13 C    1.270    11 H    0.962
     9   6 C    3.877 --    12 C    1.449     2 C    1.270    14 F    0.961
    10   1 H    0.996 --     1 C    0.969
    11   1 H    0.996 --     8 C    0.962
    12   6 C    3.953 --     9 C    1.449    15 C    1.157     7 S    1.140
    13   6 C    3.877 --    15 C    1.449     8 C    1.270     3 F    0.961
    14   9 F    1.113 --     9 C    0.961
    15   6 C    3.953 --    13 C    1.449    12 C    1.157     5 S    1.140
    16   1 H    0.996 --     2 C    0.962
 ---------------------------------------------------------------------------

molecular dipole:
                 x           y           z       tot (Debye)
 q only:       -0.000       0.000       0.012
   full:       -0.000       0.000       0.009       0.022

           -------------------------------------------------
          | TOTAL ENERGY              -35.095876233911 Eh   |
          | GRADIENT NORM               0.000303649793 Eh/α |
          | HOMO-LUMO GAP               2.658906910080 eV   |
           -------------------------------------------------

 * finished run on 2022/07/14 at 15:23:24.942
