   * xtb version 6.5.0 (746241f) compiled by 'ehlert@majestix' on 2022-05-15
          program call               : xtb -c 0 -u 0 e1.xyz --opt normal

   ID    Z sym.   atoms
    1    6 C      1, 2, 6, 8, 9, 12, 13, 15
    2    9 F      3, 14
    3    1 H      4, 10, 11, 16
    4   16 S      5, 7

          :  Hamiltonian                  GFN2-xTB          :
 * total energy  :   -33.3147322 Eh     change       -0.3475265E-10 Eh
 * total energy  :   -34.6084575 Eh     change       -0.1293725E+01 Eh
 * total energy  :   -34.8833853 Eh     change       -0.2749278E+00 Eh
 * total energy  :   -35.0177127 Eh     change       -0.1343274E+00 Eh
 * total energy  :   -35.0698596 Eh     change       -0.5214685E-01 Eh
 * total energy  :   -35.0851675 Eh     change       -0.1530788E-01 Eh
 * total energy  :   -35.0902657 Eh     change       -0.5098264E-02 Eh
 * total energy  :   -35.0931821 Eh     change       -0.2916379E-02 Eh
 * total energy  :   -35.0950574 Eh     change       -0.1875275E-02 Eh
 * total energy  :   -35.0955954 Eh     change       -0.5380095E-03 Eh
 * total energy  :   -35.0957276 Eh     change       -0.1322347E-03 Eh
 * total energy  :   -35.0957884 Eh     change       -0.6080094E-04 Eh
 * total energy  :   -35.0958168 Eh     change       -0.2839194E-04 Eh
 * total energy  :   -35.0958419 Eh     change       -0.2510590E-04 Eh
 * total energy  :   -35.0958590 Eh     change       -0.1704691E-04 Eh
 * total energy  :   -35.0958706 Eh     change       -0.1164530E-04 Eh
 * total energy  :   -35.0958755 Eh     change       -0.4926694E-05 Eh
 * total energy  :   -35.0958772 Eh     change       -0.1703355E-05 Eh
   *** GEOMETRY OPTIMIZATION CONVERGED AFTER 18 ITERATIONS ***

 final structure:
================
16
 xtb: 6.5.0 (746241f)
C           -0.56876840691817        0.88941553243398       -0.00000018020707
C           -0.00065208234504       -0.34489785168848       -0.00000019335416
F            2.99166833401111        3.79861781544747        0.00000031179990
H            6.79286457269668        1.31138150666391       -0.00000036328193
S            4.58836660506458        0.29319100714079        0.00000042861496
C            5.75051878549359        1.55708383556434       -0.00000018194283
S            0.59346706570105        2.15324284689800        0.00000041660893
C            5.18231499821525        2.79135751687397       -0.00000020276100
C            1.40314209699744       -0.26371428268642        0.00000002760584
H           -1.61109979149541        1.13518425355452       -0.00000036875971
H            5.71998893676319        3.72090664261196       -0.00000043408239
C            1.90717900023323        1.01588315688819        0.00000042921930
C            3.77853077729462        2.71006181968117        0.00000001885641
F            2.18991456023362       -1.35233646908340        0.00000028986518
C            3.27456198189158        1.43042913578029        0.00000042925454
H           -0.53839743383733       -1.27440646608028       -0.00000042743596

          :  Hamiltonian                  GFN2-xTB          :
         :: total energy             -35.095877247597 Eh    ::
         :: gradient norm              0.000906116853 Eh/a0 ::
         :: HOMO-LUMO gap              2.660074053144 eV    ::
         :: SCC energy               -35.491103446959 Eh    ::
         :: -> dispersion             -0.018425972178 Eh    ::
         :: repulsion energy           0.395234817289 Eh    ::

    * Orbital Energies and Occupations

         #    Occupation            Energy/Eh            Energy/eV
      -------------------------------------------------------------
         1        2.0000           -0.8255715             -22.4649
       ...           ...                  ...                  ...
        19        2.0000           -0.5119977             -13.9322
        20        2.0000           -0.5072405             -13.8027
        21        2.0000           -0.4965465             -13.5117
        22        2.0000           -0.4836879             -13.1618
        23        2.0000           -0.4834959             -13.1566
        24        2.0000           -0.4800728             -13.0634
        25        2.0000           -0.4714354             -12.8284
        26        2.0000           -0.4696403             -12.7796
        27        2.0000           -0.4569761             -12.4350
        28        2.0000           -0.4431943             -12.0599
        29        2.0000           -0.4110317             -11.1847
        30        2.0000           -0.4098272             -11.1520
        31        2.0000           -0.3850014             -10.4764 (HOMO)
        32                         -0.2872455              -7.8163 (LUMO)
        33                         -0.2380618              -6.4780
        34                         -0.2246042              -6.1118
        35                         -0.2133243              -5.8048
        36                         -0.1938519              -5.2750
        37                         -0.1640683              -4.4645
        38                         -0.1491841              -4.0595
        39                         -0.1172296              -3.1900
        40                         -0.0255934              -0.6964
        41                         -0.0063081              -0.1717
        42                          0.0051977               0.1414
       ...                                ...                  ...
        62                          0.6817640              18.5517
      -------------------------------------------------------------
                  HL-Gap            0.0977559 Eh            2.6601 eV

     #   Z          covCN         q      C6AA      α(0)
     1   6 C        2.952    -0.029    28.733     8.792
     2   6 C        3.092    -0.062    29.433     8.892
     3   9 F        0.786    -0.213    11.367     3.983
     4   1 H        0.927     0.063     2.168     2.303
     5  16 S        2.343     0.032   139.735    19.895
     6   6 C        2.952    -0.029    28.733     8.792
     7  16 S        2.343     0.032   139.735    19.895
     8   6 C        3.092    -0.062    29.433     8.892
     9   6 C        3.005     0.148    24.776     8.165
    10   1 H        0.927     0.063     2.168     2.303
    11   1 H        0.926     0.064     2.152     2.294
    12   6 C        3.006    -0.003    28.077     8.692
    13   6 C        3.005     0.148    24.776     8.165
    14   9 F        0.786    -0.213    11.367     3.983
    15   6 C        3.006    -0.003    28.077     8.692
    16   1 H        0.926     0.064     2.152     2.294

Wiberg/Mayer (AO) data.
largest (>0.10) Wiberg bond orders for each atom

     #   Z sym  total        # sym  WBO       # sym  WBO       # sym  WBO
 ---------------------------------------------------------------------------
     1   6 C    3.939 --     2 C    1.598     7 S    1.208    10 H    0.969
     2   6 C    3.984 --     1 C    1.598     9 C    1.270    16 H    0.962
     3   9 F    1.112 --    13 C    0.960
     4   1 H    0.996 --     6 C    0.969
     5  16 S    2.641 --     6 C    1.208    15 C    1.140
     6   6 C    3.939 --     8 C    1.598     5 S    1.208     4 H    0.969
     7  16 S    2.641 --     1 C    1.208    12 C    1.140
     8   6 C    3.984 --     6 C    1.598    13 C    1.270    11 H    0.962
     9   6 C    3.877 --    12 C    1.449     2 C    1.270    14 F    0.960
    10   1 H    0.996 --     1 C    0.969
    11   1 H    0.996 --     8 C    0.962
    12   6 C    3.953 --     9 C    1.449    15 C    1.157     7 S    1.140
    13   6 C    3.877 --    15 C    1.449     8 C    1.270     3 F    0.960
    14   9 F    1.112 --     9 C    0.960
    15   6 C    3.953 --    13 C    1.449    12 C    1.157     5 S    1.140
    16   1 H    0.996 --     2 C    0.962
 ---------------------------------------------------------------------------

molecular dipole:
                 x           y           z       tot (Debye)
 q only:        0.000       0.000      -0.000
   full:        0.000       0.000      -0.000       0.000

           -------------------------------------------------
          | TOTAL ENERGY              -35.095877247597 Eh   |
          | GRADIENT NORM               0.000906116853 Eh/α |
          | HOMO-LUMO GAP               2.660074053144 eV   |
           -------------------------------------------------

 * finished run on 2022/07/14 at 15:23:24.179
