   * xtb version 6.5.0 (746241f) compiled by 'ehlert@majestix' on 2022-05-15
          program call               : xtb -c 0 -u 0 e2.xyz --opt normal

   ID    Z sym.   atoms
    1    6 C      1, 2, 6, 8, 9, 12, 13, 15
    2    9 F      3, 14
    3    1 H      4, 10, 11, 16
    4   16 S      5, 7

          :  Hamiltonian                  GFN2-xTB          :
 * total energy  :   -33.4117593 Eh     change       -0.6548362E-10 Eh
 * total energy  :   -34.6194367 Eh     change       -0.1207677E+01 Eh
 * total energy  :   -34.8965028 Eh     change       -0.2770661E+00 Eh
 * total energy  :   -35.0109424 Eh     change       -0.1144396E+00 Eh
 * total energy  :   -35.0585339 Eh     change       -0.4759151E-01 Eh
 * total energy  :   -35.0755795 Eh     change       -0.1704560E-01 Eh
 * total energy  :   -35.0827791 Eh     change       -0.7199615E-02 Eh
 * total energy  :   -35.0862955 Eh     change       -0.3516398E-02 Eh
 * total energy  :   -35.0880449 Eh     change       -0.1749417E-02 Eh
 * total energy  :   -35.0887186 Eh     change       -0.6736401E-03 Eh
 * total energy  :   -35.0956830 Eh     change       -0.1697889E-03 Eh
 * total energy  :   -35.0956615 Eh     change        0.2153383E-04 Eh
 * total energy  :   -35.0958169 Eh     change       -0.1553453E-03 Eh
 * total energy  :   -35.0958411 Eh     change       -0.2419677E-04 Eh
 * total energy  :   -35.0958515 Eh     change       -0.1047802E-04 Eh
 * total energy  :   -35.0958574 Eh     change       -0.5879665E-05 Eh
 * total energy  :   -35.0958651 Eh     change       -0.7688399E-05 Eh
 * total energy  :   -35.0958707 Eh     change       -0.5636844E-05 Eh
 * total energy  :   -35.0958749 Eh     change       -0.4180293E-05 Eh
   *** GEOMETRY OPTIMIZATION CONVERGED AFTER 49 ITERATIONS ***

 final structure:
================
16
 xtb: 6.5.0 (746241f)
C           -0.18684658045544        0.84589196213708       -0.94656663172188
C            0.35097195997189       -0.37454142448683       -0.68750705712144
F            3.20742250649968        3.81673547432006       -0.04620713329861
H            6.78429966840039        1.41096554808160        1.38643476456932
S            4.69408161154680        0.35308551254132        0.74982786848104
C            5.80038438417719        1.63603896115804        1.02760253327237
S            0.91615246211346        2.13050368338902       -0.66306816899958
C            5.27201032261892        2.85543263240197        0.74508195472724
C            1.68294886494192       -0.26545640555991       -0.24991066201201
H           -1.17602153398411        1.07091396372162       -1.29098239046725
H            5.78649067555967        3.79269862333809        0.84573905116137
C            2.16187218582543        1.02191643496258       -0.17432495853895
C            3.94391544622899        2.74695918496095        0.29563741562595
F            2.42860813558795       -1.33592210756755        0.06918701141826
C            3.45892363680218        1.46110682382490        0.23335345920386
H           -0.15921374583504       -1.31302886722295       -0.79689705630006

          :  Hamiltonian                  GFN2-xTB          :
         :: total energy             -35.095874915867 Eh    ::
         :: gradient norm              0.000545934813 Eh/a0 ::
         :: HOMO-LUMO gap              2.658548727986 eV    ::
         :: SCC energy               -35.490917507548 Eh    ::
         :: -> dispersion             -0.018425768324 Eh    ::
         :: repulsion energy           0.395051158855 Eh    ::

    * Orbital Energies and Occupations

         #    Occupation            Energy/Eh            Energy/eV
      -------------------------------------------------------------
         1        2.0000           -0.8256000             -22.4657
       ...           ...                  ...                  ...
        19        2.0000           -0.5119724             -13.9315
        20        2.0000           -0.5072219             -13.8022
        21        2.0000           -0.4965395             -13.5115
        22        2.0000           -0.4836651             -13.1612
        23        2.0000           -0.4834975             -13.1566
        24        2.0000           -0.4800847             -13.0638
        25        2.0000           -0.4714670             -12.8293
        26        2.0000           -0.4696339             -12.7794
        27        2.0000           -0.4569324             -12.4338
        28        2.0000           -0.4431729             -12.0593
        29        2.0000           -0.4110249             -11.1846
        30        2.0000           -0.4098164             -11.1517
        31        2.0000           -0.3849302             -10.4745 (HOMO)
        32                         -0.2872303              -7.8159 (LUMO)
        33                         -0.2380257              -6.4770
        34                         -0.2246727              -6.1137
        35                         -0.2133234              -5.8048
        36                         -0.1938527              -5.2750
        37                         -0.1641370              -4.4664
        38                         -0.1491023              -4.0573
        39                         -0.1171974              -3.1891
        40                         -0.0256088              -0.6968
        41                         -0.0063501              -0.1728
        42                          0.0052044               0.1416
       ...                                ...                  ...
        62                          0.6816656              18.5491
      -------------------------------------------------------------
                  HL-Gap            0.0976999 Eh            2.6585 eV

     #   Z          covCN         q      C6AA      α(0)
     1   6 C        2.952    -0.029    28.731     8.791
     2   6 C        3.092    -0.062    29.434     8.892
     3   9 F        0.786    -0.213    11.366     3.982
     4   1 H        0.926     0.063     2.169     2.303
     5  16 S        2.342     0.033   139.732    19.895
     6   6 C        2.952    -0.029    28.731     8.792
     7  16 S        2.342     0.033   139.732    19.895
     8   6 C        3.091    -0.062    29.434     8.893
     9   6 C        3.004     0.148    24.778     8.165
    10   1 H        0.926     0.063     2.169     2.303
    11   1 H        0.926     0.064     2.152     2.294
    12   6 C        3.006    -0.003    28.078     8.692
    13   6 C        3.004     0.148    24.777     8.165
    14   9 F        0.786    -0.213    11.366     3.982
    15   6 C        3.006    -0.003    28.079     8.692
    16   1 H        0.926     0.064     2.152     2.294

Wiberg/Mayer (AO) data.
largest (>0.10) Wiberg bond orders for each atom

     #   Z sym  total        # sym  WBO       # sym  WBO       # sym  WBO
 ---------------------------------------------------------------------------
     1   6 C    3.939 --     2 C    1.598     7 S    1.208    10 H    0.969
     2   6 C    3.984 --     1 C    1.598     9 C    1.270    16 H    0.962
     3   9 F    1.113 --    13 C    0.961
     4   1 H    0.996 --     6 C    0.969
     5  16 S    2.641 --     6 C    1.208    15 C    1.140
     6   6 C    3.939 --     8 C    1.598     5 S    1.208     4 H    0.969
     7  16 S    2.641 --     1 C    1.208    12 C    1.140
     8   6 C    3.984 --     6 C    1.598    13 C    1.270    11 H    0.962
     9   6 C    3.877 --    12 C    1.449     2 C    1.270    14 F    0.961
    10   1 H    0.996 --     1 C    0.969
    11   1 H    0.996 --     8 C    0.962
    12   6 C    3.953 --     9 C    1.449    15 C    1.158     7 S    1.140
    13   6 C    3.877 --    15 C    1.449     8 C    1.270     3 F    0.961
    14   9 F    1.113 --     9 C    0.961
    15   6 C    3.953 --    13 C    1.449    12 C    1.158     5 S    1.140
    16   1 H    0.996 --     2 C    0.962
 ---------------------------------------------------------------------------

molecular dipole:
                 x           y           z       tot (Debye)
 q only:       -0.006      -0.000       0.014
   full:       -0.004      -0.001       0.010       0.028

           -------------------------------------------------
          | TOTAL ENERGY              -35.095874915867 Eh   |
          | GRADIENT NORM               0.000545934813 Eh/α |
          | HOMO-LUMO GAP               2.658548727986 eV   |
           -------------------------------------------------

 * finished run on 2022/07/14 at 15:23:24.565
