   * xtb version 6.5.0 (746241f) compiled by 'ehlert@majestix' on 2022-05-15
          program call               : xtb -c 0 -u 0 xtbopt.xyz --opt normal

   ID    Z sym.   atoms
    1    8 O      1
    2    1 H      2, 3

          :  Hamiltonian                  GFN2-xTB          :
 * total energy  :    -5.0705444 Eh     change        0.0000000E+00 Eh
 * total energy  :    -5.0705444 Eh     change       -0.1974000E-07 Eh
   *** GEOMETRY OPTIMIZATION CONVERGED AFTER 2 ITERATIONS ***

 final structure:
================
3
 xtb: 6.5.0 (746241f)
O           -2.21933360430529        1.17843592034848       -0.01204555765152
H           -1.40633041631673        1.43319887413994        0.42868027409283
H           -2.65644597937798        0.53419520551158        0.54831528355869

          :  Hamiltonian                  GFN2-xTB          :
         :: total energy              -5.070544446867 Eh    ::
         :: gradient norm              0.000026009867 Eh/a0 ::
         :: HOMO-LUMO gap             14.388810659693 eV    ::
         :: SCC energy                -5.104907782675 Eh    ::
         :: -> dispersion             -0.000141084519 Eh    ::
         :: repulsion energy           0.034363335782 Eh    ::

    * Orbital Energies and Occupations

         #    Occupation            Energy/Eh            Energy/eV
      -------------------------------------------------------------
         1        2.0000           -0.6800790             -18.5059
         2        2.0000           -0.5683075             -15.4644
         3        2.0000           -0.5108639             -13.9013
         4        2.0000           -0.4463835             -12.1467 (HOMO)
         5                          0.0823956               2.2421 (LUMO)
         6                          0.2514733               6.8429
      -------------------------------------------------------------
                  HL-Gap            0.5287791 Eh           14.3888 eV

     #   Z          covCN         q      C6AA      α(0)
     1   8 O        1.611    -0.565    24.358     6.661
     2   1 H        0.805     0.282     0.776     1.384
     3   1 H        0.805     0.282     0.776     1.384

Wiberg/Mayer (AO) data.
largest (>0.10) Wiberg bond orders for each atom

     #   Z sym  total        # sym  WBO       # sym  WBO       # sym  WBO
 ---------------------------------------------------------------------------
     1   8 O    1.840 --     3 H    0.920     2 H    0.920
     2   1 H    0.920 --     1 O    0.920
     3   1 H    0.920 --     1 O    0.920
 ---------------------------------------------------------------------------

molecular dipole:
                 x           y           z       tot (Debye)
 q only:        0.201      -0.208       0.534
   full:        0.288      -0.299       0.767       2.217

           -------------------------------------------------
          | TOTAL ENERGY               -5.070544446867 Eh   |
          | GRADIENT NORM               0.000026009867 Eh/α |
          | HOMO-LUMO GAP              14.388810659693 eV   |
           -------------------------------------------------

 * finished run on 2022/07/14 at 15:23:25.204
