   * xtb version 6.5.0 (746241f) compiled by 'ehlert@majestix' on 2022-05-15
          program call               : xtb -u 0 -c 0 beneze.xyz --opt --molden

   ID    Z sym.   atoms
    1    6 C      1-6
    2    1 H      7-12

          :  Hamiltonian                  GFN2-xTB          :
 * total energy  :   -15.8788922 Eh     change       -0.8206769E-11 Eh
 * total energy  :   -15.8796309 Eh     change       -0.7386449E-03 Eh
 * total energy  :   -15.8796381 Eh     change       -0.7171119E-05 Eh
 * total energy  :   -15.8796407 Eh     change       -0.2592744E-05 Eh
   *** GEOMETRY OPTIMIZATION CONVERGED AFTER 4 ITERATIONS ***

 final structure:
================
12
 xtb: 6.5.0 (746241f)
C            1.37279302331594       -0.19191636817729        0.00541996521662
C            0.87476744854799        1.09997967139642        0.01462361271685
C           -0.49307533466062        1.31468852097622        0.00967498625172
C           -1.36289150411927        0.23750214160939       -0.00444029564517
C           -0.86486469227616       -1.05439854990285       -0.01363816363165
C            0.50297494900609       -1.26910480071263       -0.00872497324299
H            2.44016582231328       -0.35946616270761        0.00926105960351
H            1.55350957697586        1.94055182284249        0.02564283530792
H           -0.88170160061330        2.32280158156416        0.01685409936229
H           -2.43026593048584        0.40504329067701       -0.00826906253448
H           -1.54361569582208       -1.89496352735084       -0.02462757375909
H            0.89160393781812       -2.27721762021448       -0.01587648964551

          :  Hamiltonian                  GFN2-xTB          :
         :: total energy             -15.879640655550 Eh    ::
         :: gradient norm              0.000058140871 Eh/a0 ::
         :: HOMO-LUMO gap              4.934209342322 eV    ::
         :: SCC energy               -16.196547376925 Eh    ::
         :: -> dispersion             -0.008019524227 Eh    ::
         :: repulsion energy           0.316899937179 Eh    ::

    * Orbital Energies and Occupations

         #    Occupation            Energy/Eh            Energy/eV
      -------------------------------------------------------------
         1        2.0000           -0.6416553             -17.4603
       ...           ...                  ...                  ...
         3        2.0000           -0.6114924             -16.6396
         4        2.0000           -0.5690025             -15.4833
         5        2.0000           -0.5690024             -15.4833
         6        2.0000           -0.5311830             -14.4542
         7        2.0000           -0.4950038             -13.4697
         8        2.0000           -0.4894019             -13.3173
         9        2.0000           -0.4763503             -12.9622
        10        2.0000           -0.4763501             -12.9621
        11        2.0000           -0.4747545             -12.9187
        12        2.0000           -0.4213974             -11.4668
        13        2.0000           -0.4213970             -11.4668
        14        2.0000           -0.4025251             -10.9533
        15        2.0000           -0.4025250             -10.9533 (HOMO)
        16                         -0.2211961              -6.0191 (LUMO)
        17                         -0.2211957              -6.0190
        18                         -0.0899233              -2.4469
        19                          0.1180242               3.2116
        20                          0.1377124               3.7473
        21                          0.1734916               4.7209
        22                          0.1734927               4.7210
        23                          0.2027070               5.5159
        24                          0.2027072               5.5159
        25                          0.4132476              11.2450
        26                          0.4132483              11.2451
       ...                                ...                  ...
        30                          0.6741172              18.3437
      -------------------------------------------------------------
                  HL-Gap            0.1813289 Eh            4.9342 eV

     #   Z          covCN         q      C6AA      α(0)
     1   6 C        2.920    -0.029    28.718     8.788
     2   6 C        2.920    -0.029    28.718     8.788
     3   6 C        2.920    -0.029    28.718     8.788
     4   6 C        2.920    -0.029    28.718     8.788
     5   6 C        2.920    -0.029    28.718     8.788
     6   6 C        2.920    -0.029    28.718     8.788
     7   1 H        0.926     0.029     2.604     2.524
     8   1 H        0.926     0.029     2.604     2.524
     9   1 H        0.926     0.029     2.604     2.524
    10   1 H        0.926     0.029     2.604     2.524
    11   1 H        0.926     0.029     2.604     2.524
    12   1 H        0.926     0.029     2.604     2.524

Wiberg/Mayer (AO) data.
largest (>0.10) Wiberg bond orders for each atom

     #   Z sym  total        # sym  WBO       # sym  WBO       # sym  WBO
 ---------------------------------------------------------------------------
     1   6 C    3.993 --     2 C    1.441     6 C    1.441     7 H    0.972
                             4 C    0.114
     2   6 C    3.993 --     1 C    1.441     3 C    1.441     8 H    0.972
                             5 C    0.114
     3   6 C    3.993 --     4 C    1.441     2 C    1.441     9 H    0.972
                             6 C    0.114
     4   6 C    3.993 --     3 C    1.441     5 C    1.441    10 H    0.972
                             1 C    0.114
     5   6 C    3.993 --     6 C    1.441     4 C    1.441    11 H    0.972
                             2 C    0.114
     6   6 C    3.993 --     5 C    1.441     1 C    1.441    12 H    0.972
                             3 C    0.114
     7   1 H    0.999 --     1 C    0.972
     8   1 H    0.999 --     2 C    0.972
     9   1 H    0.999 --     3 C    0.972
    10   1 H    0.999 --     4 C    0.972
    11   1 H    0.999 --     5 C    0.972
    12   1 H    0.999 --     6 C    0.972
 ---------------------------------------------------------------------------

molecular dipole:
                 x           y           z       tot (Debye)
 q only:        0.000       0.000       0.000
   full:       -0.000      -0.000       0.000       0.000

           -------------------------------------------------
          | TOTAL ENERGY              -15.879640655550 Eh   |
          | GRADIENT NORM               0.000058140871 Eh/α |
          | HOMO-LUMO GAP               4.934209342322 eV   |
           -------------------------------------------------

 * finished run on 2022/07/19 at 20:41:29.807
