   * xtb version 6.5.0 (746241f) compiled by 'ehlert@majestix' on 2022-05-15
          program call               : xtb -c 0 -u 0 h2o.xyz --opt normal

   ID    Z sym.   atoms
    1    8 O      1
    2    1 H      2, 3

          :  Hamiltonian                  GFN2-xTB          :
 * total energy  :    -5.0703225 Eh     change       -0.1891820E-12 Eh
 * total energy  :    -5.0704920 Eh     change       -0.1694716E-03 Eh
 * total energy  :    -5.0705380 Eh     change       -0.4604054E-04 Eh
 * total energy  :    -5.0705440 Eh     change       -0.5933589E-05 Eh
 * total energy  :    -5.0705444 Eh     change       -0.4617855E-06 Eh
   *** GEOMETRY OPTIMIZATION CONVERGED AFTER 5 ITERATIONS ***

 final structure:
================
3
 xtb: 6.5.0 (746241f)
O           -2.21931693005810        1.17841865603631       -0.01200117003491
H           -1.40641984355735        1.43314919333778        0.42866583755316
H           -2.65637322638455        0.53426215062591        0.54828533248175

          :  Hamiltonian                  GFN2-xTB          :
         :: total energy              -5.070544427123 Eh    ::
         :: gradient norm              0.000183139198 Eh/a0 ::
         :: HOMO-LUMO gap             14.394428294144 eV    ::
         :: SCC energy                -5.104948196756 Eh    ::
         :: -> dispersion             -0.000141081696 Eh    ::
         :: repulsion energy           0.034403769607 Eh    ::

    * Orbital Energies and Occupations

         #    Occupation            Energy/Eh            Energy/eV
      -------------------------------------------------------------
         1        2.0000           -0.6800977             -18.5064
         2        2.0000           -0.5683192             -15.4648
         3        2.0000           -0.5108672             -13.9014
         4        2.0000           -0.4463900             -12.1469 (HOMO)
         5                          0.0825955               2.2475 (LUMO)
         6                          0.2517299               6.8499
      -------------------------------------------------------------
                  HL-Gap            0.5289855 Eh           14.3944 eV

     #   Z          covCN         q      C6AA      α(0)
     1   8 O        1.611    -0.565    24.358     6.661
     2   1 H        0.805     0.282     0.776     1.384
     3   1 H        0.805     0.282     0.776     1.384

Wiberg/Mayer (AO) data.
largest (>0.10) Wiberg bond orders for each atom

     #   Z sym  total        # sym  WBO       # sym  WBO       # sym  WBO
 ---------------------------------------------------------------------------
     1   8 O    1.840 --     3 H    0.920     2 H    0.920
     2   1 H    0.920 --     1 O    0.920
     3   1 H    0.920 --     1 O    0.920
 ---------------------------------------------------------------------------

molecular dipole:
                 x           y           z       tot (Debye)
 q only:        0.201      -0.208       0.534
   full:        0.288      -0.298       0.767       2.217

           -------------------------------------------------
          | TOTAL ENERGY               -5.070544427123 Eh   |
          | GRADIENT NORM               0.000183139198 Eh/α |
          | HOMO-LUMO GAP              14.394428294144 eV   |
           -------------------------------------------------

 * finished run on 2022/07/13 at 14:28:49.186
