   * xtb version 6.5.0 (746241f) compiled by 'ehlert@majestix' on 2022-05-15
          program call               : xtb -c 0 -u 0 --opt --molden oligothiophene_n4.xyz

   ID    Z sym.   atoms
    1    6 C      1, 2, 4-16, 20
    2   16 S      3, 17-19
    3    1 H      21-30

          :  Hamiltonian                  GFN2-xTB          :
 * total energy  :   -45.7828177 Eh     change       -0.1876209E-08 Eh
 * total energy  :   -49.3199941 Eh     change       -0.3537176E+01 Eh
 * total energy  :   -50.4222402 Eh     change       -0.1102246E+01 Eh
 * total energy  :   -51.1902534 Eh     change       -0.7680132E+00 Eh
 * total energy  :   -51.6602756 Eh     change       -0.4700222E+00 Eh
 * total energy  :   -51.8929735 Eh     change       -0.2326979E+00 Eh
 * total energy  :   -52.0129385 Eh     change       -0.1199650E+00 Eh
 * total energy  :   -52.0907417 Eh     change       -0.7780322E-01 Eh
 * total energy  :   -52.1512662 Eh     change       -0.6052447E-01 Eh
 * total energy  :   -52.2010528 Eh     change       -0.4978665E-01 Eh
 * total energy  :   -52.3128250 Eh     change       -0.1101014E-04 Eh
 * total energy  :   -52.3128351 Eh     change       -0.1017511E-04 Eh
 * total energy  :   -52.3128427 Eh     change       -0.7559410E-05 Eh
 * total energy  :   -52.3128488 Eh     change       -0.6111880E-05 Eh
 * total energy  :   -52.3128546 Eh     change       -0.5822280E-05 Eh
 * total energy  :   -52.3128605 Eh     change       -0.5906834E-05 Eh
 * total energy  :   -52.3128662 Eh     change       -0.5644348E-05 Eh
 * total energy  :   -52.3128714 Eh     change       -0.5200671E-05 Eh
 * total energy  :   -52.3128761 Eh     change       -0.4716393E-05 Eh
   *** GEOMETRY OPTIMIZATION CONVERGED AFTER 39 ITERATIONS ***

 final structure:
================
30
 xtb: 6.5.0 (746241f)
C            4.42748348136763       12.44128187525048       -1.09970031729131
C            4.85529584487559       12.64416349468409        0.17411707337686
S            4.66419979622176       11.24667114975889        1.15587575236773
C            3.98754296648170       10.35817737781407       -0.18176400823932
C            3.56449210734826        9.00715361553687       -0.02156740806904
C            3.60253750984413        8.23087475461424        1.11214945494645
C            3.08272041659553        6.94718671455176        0.92555182496724
C            2.63985696862661        6.71698699643742       -0.35600893461639
C            2.03762913807001        5.54251270832810       -0.88441253036306
C            1.63714246194965        5.29619092126967       -2.17690470125220
C            1.05290912734121        4.03834921479270       -2.34796209031669
C            0.99260921495986        3.30055259240812       -1.18974202495027
C            0.44457353524145        1.99928597931167       -0.99934789902966
C            0.35650799743517        1.27222381110944        0.16069894700256
C           -0.26451907371197        0.02273832159871       -0.01648573377620
C           -0.64503781593862       -0.19762664939089       -1.30233594118547
S           -0.25219149670233        1.12027030570065       -2.33293295842313
S            1.68547562556488        4.18045126328598        0.14423129863790
S            2.87681720123690        8.12432241445428       -1.35625579662979
C            3.93266896299122       11.14111973415750       -1.30696140715975
H            4.46275298045705       13.19521465360545       -1.86554571299826
H            5.27361980956037       13.53184681956645        0.60481896692045
H            3.99433098122612        8.59319926652465        2.04616576198031
H            3.02595579394435        6.20047065985637        1.69776232818174
H            1.76727455620746        6.01419459017436       -2.96728892739434
H            0.67780929677504        3.66993779762449       -3.28645242232654
H            0.72735502592285        1.63546939669168        1.10266892708013
H           -0.42345267951810       -0.68263172430067        0.77938444786536
H           -1.13587746900535       -1.05584829712702       -1.71589841451370
H            3.54591773463194       10.78316024170956       -2.24455755479158

          :  Hamiltonian                  GFN2-xTB          :
         :: total energy             -52.312876099496 Eh    ::
         :: gradient norm              0.000211224576 Eh/a0 ::
         :: HOMO-LUMO gap              1.796567587813 eV    ::
         :: SCC energy               -53.115107208530 Eh    ::
         :: -> dispersion             -0.040854183835 Eh    ::
         :: repulsion energy           0.802852879780 Eh    ::

    * Orbital Energies and Occupations

         #    Occupation            Energy/Eh            Energy/eV
      -------------------------------------------------------------
         1        2.0000           -0.7347461             -19.9935
       ...           ...                  ...                  ...
        37        2.0000           -0.4553685             -12.3912
        38        2.0000           -0.4550951             -12.3838
        39        2.0000           -0.4523358             -12.3087
        40        2.0000           -0.4484275             -12.2023
        41        2.0000           -0.4457029             -12.1282
        42        2.0000           -0.4411542             -12.0044
        43        2.0000           -0.4159464             -11.3185
        44        2.0000           -0.4031825             -10.9712
        45        2.0000           -0.4024195             -10.9504
        46        2.0000           -0.4006829             -10.9031
        47        2.0000           -0.4005891             -10.9006
        48        2.0000           -0.3839625             -10.4482
        49        2.0000           -0.3574243              -9.7260 (HOMO)
        50                         -0.2914017              -7.9294 (LUMO)
        51                         -0.2634561              -7.1690
        52                         -0.2339721              -6.3667
        53                         -0.2191120              -5.9623
        54                         -0.2142571              -5.8302
        55                         -0.2072027              -5.6383
        56                         -0.2057994              -5.6001
        57                         -0.1980878              -5.3902
        58                         -0.1835713              -4.9952
        59                         -0.1644329              -4.4744
        60                         -0.1515074              -4.1227
       ...                                ...                  ...
       110                          0.7049535              19.1828
      -------------------------------------------------------------
                  HL-Gap            0.0660226 Eh            1.7966 eV

     #   Z          covCN         q      C6AA      α(0)
     1   6 C        3.108    -0.041    28.876     8.804
     2   6 C        2.941    -0.019    28.487     8.754
     3  16 S        2.327    -0.030   142.300    20.077
     4   6 C        3.024     0.020    27.537     8.608
     5   6 C        3.022     0.022    27.494     8.601
     6   6 C        3.097    -0.048    29.064     8.835
     7   6 C        3.097    -0.048    29.065     8.836
     8   6 C        3.023     0.022    27.497     8.601
     9   6 C        3.023     0.022    27.497     8.601
    10   6 C        3.097    -0.048    29.065     8.836
    11   6 C        3.097    -0.048    29.064     8.835
    12   6 C        3.022     0.022    27.494     8.601
    13   6 C        3.024     0.020    27.537     8.608
    14   6 C        3.110    -0.050    29.096     8.837
    15   6 C        3.108    -0.041    28.876     8.804
    16   6 C        2.941    -0.019    28.487     8.754
    17  16 S        2.327    -0.030   142.300    20.077
    18  16 S        2.345    -0.044   142.879    20.118
    19  16 S        2.346    -0.044   142.881    20.118
    20   6 C        3.110    -0.050    29.096     8.837
    21   1 H        0.926     0.039     2.457     2.451
    22   1 H        0.926     0.046     2.373     2.409
    23   1 H        0.926     0.045     2.385     2.415
    24   1 H        0.926     0.044     2.390     2.418
    25   1 H        0.926     0.044     2.390     2.418
    26   1 H        0.926     0.045     2.384     2.415
    27   1 H        0.926     0.043     2.410     2.428
    28   1 H        0.926     0.039     2.457     2.451
    29   1 H        0.926     0.046     2.373     2.409
    30   1 H        0.926     0.043     2.410     2.428

Wiberg/Mayer (AO) data.
largest (>0.10) Wiberg bond orders for each atom

     #   Z sym  total        # sym  WBO       # sym  WBO       # sym  WBO
 ---------------------------------------------------------------------------
     1   6 C    3.987 --     2 C    1.603    20 C    1.301    21 H    0.965
     2   6 C    3.924 --     1 C    1.603     3 S    1.193    22 H    0.970
     3  16 S    2.600 --     2 C    1.193     4 C    1.124
     4   6 C    3.952 --    20 C    1.504     5 C    1.164     3 S    1.124
     5   6 C    3.931 --     6 C    1.478     4 C    1.164    19 S    1.122
     6   6 C    3.985 --     5 C    1.478     7 C    1.343    23 H    0.961
     7   6 C    3.972 --     8 C    1.472     6 C    1.343    24 H    0.961
     8   6 C    3.939 --     7 C    1.472     9 C    1.175    19 S    1.118
     9   6 C    3.939 --    10 C    1.472     8 C    1.175    18 S    1.118
    10   6 C    3.972 --     9 C    1.472    11 C    1.343    25 H    0.961
    11   6 C    3.985 --    12 C    1.478    10 C    1.343    26 H    0.961
    12   6 C    3.931 --    11 C    1.478    13 C    1.164    18 S    1.122
    13   6 C    3.952 --    14 C    1.504    12 C    1.164    17 S    1.124
    14   6 C    3.970 --    13 C    1.504    15 C    1.301    27 H    0.962
    15   6 C    3.987 --    16 C    1.603    14 C    1.301    28 H    0.965
    16   6 C    3.924 --    15 C    1.603    17 S    1.193    29 H    0.970
    17  16 S    2.600 --    16 C    1.193    13 C    1.124
    18  16 S    2.563 --    12 C    1.122     9 C    1.118
    19  16 S    2.563 --     5 C    1.122     8 C    1.118
    20   6 C    3.970 --     4 C    1.504     1 C    1.301    30 H    0.962
    21   1 H    0.998 --     1 C    0.965
    22   1 H    0.997 --     2 C    0.970
    23   1 H    0.998 --     6 C    0.961
    24   1 H    0.998 --     7 C    0.961
    25   1 H    0.998 --    10 C    0.961
    26   1 H    0.998 --    11 C    0.961
    27   1 H    0.998 --    14 C    0.962
    28   1 H    0.998 --    15 C    0.965
    29   1 H    0.997 --    16 C    0.970
    30   1 H    0.998 --    20 C    0.962
 ---------------------------------------------------------------------------

molecular dipole:
                 x           y           z       tot (Debye)
 q only:       -0.015       0.006       0.003
   full:       -0.028       0.011       0.007       0.078

           -------------------------------------------------
          | TOTAL ENERGY              -52.312876099496 Eh   |
          | GRADIENT NORM               0.000211224576 Eh/α |
          | HOMO-LUMO GAP               1.796567587813 eV   |
           -------------------------------------------------

 * finished run on 2022/07/20 at 15:45:10.038
