   * xtb version 6.5.0 (746241f) compiled by 'ehlert@majestix' on 2022-05-15
          program call               : xtb -c 0 -u 0 --opt --molden oligothiophene_n2.xyz

   ID    Z sym.   atoms
    1    6 C      1, 2, 4-8, 10
    2   16 S      3, 9
    3    1 H      11-16

          :  Hamiltonian                  GFN2-xTB          :
 * total energy  :   -25.1897659 Eh     change       -0.5103828E-10 Eh
 * total energy  :   -26.3313799 Eh     change       -0.1141614E+01 Eh
 * total energy  :   -26.5028696 Eh     change       -0.1714897E+00 Eh
 * total energy  :   -26.5776184 Eh     change       -0.7474882E-01 Eh
 * total energy  :   -26.6117776 Eh     change       -0.3415920E-01 Eh
 * total energy  :   -26.6265292 Eh     change       -0.1475161E-01 Eh
 * total energy  :   -26.6339383 Eh     change       -0.7409066E-02 Eh
 * total energy  :   -26.6376476 Eh     change       -0.3709294E-02 Eh
 * total energy  :   -26.6392036 Eh     change       -0.1556037E-02 Eh
 * total energy  :   -26.6398398 Eh     change       -0.6361488E-03 Eh
 * total energy  :   -26.6485357 Eh     change       -0.1352079E-03 Eh
 * total energy  :   -26.6486334 Eh     change       -0.9776051E-04 Eh
 * total energy  :   -26.6487638 Eh     change       -0.1303841E-03 Eh
 * total energy  :   -26.6488029 Eh     change       -0.3908459E-04 Eh
 * total energy  :   -26.6488479 Eh     change       -0.4500212E-04 Eh
 * total energy  :   -26.6488561 Eh     change       -0.8226469E-05 Eh
 * total energy  :   -26.6488644 Eh     change       -0.8285302E-05 Eh
 * total energy  :   -26.6488767 Eh     change       -0.1223625E-04 Eh
 * total energy  :   -26.6488782 Eh     change       -0.1558357E-05 Eh
   *** GEOMETRY OPTIMIZATION CONVERGED AFTER 45 ITERATIONS ***

 final structure:
================
16
 xtb: 6.5.0 (746241f)
C            0.92264775264559        4.74436884907819        0.09413895455286
C           -0.28659611371305        5.21190389853168       -0.31014246291404
S           -1.43281290797700        3.94931548629711       -0.52691059401613
C           -0.25483801431252        2.75355303006815       -0.06192520875766
C           -0.59374878415365        1.36614517929339       -0.03049579058934
C           -1.79233934826392        0.77549158762432       -0.33336669375105
C           -1.76903410169727       -0.62525342635341       -0.19559888479357
C           -0.55963945246522       -1.09287918097867        0.20937445680826
S            0.58422940531048        0.17045394177700        0.43465010881514
C            0.94468780310271        3.34408402683604        0.23695901434680
H            1.77179450504657        5.37630206278391        0.28394712133870
H           -0.58370855373131        6.22450732182885       -0.49673113651768
H           -2.65512958947889        1.33710045485721       -0.64359567622439
H           -2.61667612736203       -1.25724877301489       -0.39067161078186
H           -0.26179079195167       -2.10587035609468        0.39342716269486
H            1.80785431900106        2.78222589746587        0.54854123978893

          :  Hamiltonian                  GFN2-xTB          :
         :: total energy             -26.648878216693 Eh    ::
         :: gradient norm              0.000731326575 Eh/a0 ::
         :: HOMO-LUMO gap              2.664919575842 eV    ::
         :: SCC energy               -27.061115345195 Eh    ::
         :: -> dispersion             -0.017466024451 Eh    ::
         :: repulsion energy           0.412258676960 Eh    ::

    * Orbital Energies and Occupations

         #    Occupation            Energy/Eh            Energy/eV
      -------------------------------------------------------------
         1        2.0000           -0.7318813             -19.9155
       ...           ...                  ...                  ...
        13        2.0000           -0.4996605             -13.5965
        14        2.0000           -0.4849961             -13.1974
        15        2.0000           -0.4759811             -12.9521
        16        2.0000           -0.4718087             -12.8386
        17        2.0000           -0.4689804             -12.7616
        18        2.0000           -0.4655058             -12.6671
        19        2.0000           -0.4569084             -12.4331
        20        2.0000           -0.4523641             -12.3095
        21        2.0000           -0.4453658             -12.1190
        22        2.0000           -0.4230908             -11.5129
        23        2.0000           -0.4000870             -10.8869
        24        2.0000           -0.3982297             -10.8364
        25        2.0000           -0.3703295             -10.0772 (HOMO)
        26                         -0.2723955              -7.4123 (LUMO)
        27                         -0.2196730              -5.9776
        28                         -0.2118801              -5.7656
        29                         -0.1980988              -5.3905
        30                         -0.1765157              -4.8032
        31                         -0.1484621              -4.0399
        32                         -0.1332564              -3.6261
        33                         -0.1023369              -2.7847
        34                         -0.0093992              -0.2558
        35                          0.0070868               0.1928
        36                          0.0187577               0.5104
       ...                                ...                  ...
        56                          0.7064144              19.2225
      -------------------------------------------------------------
                  HL-Gap            0.0979340 Eh            2.6649 eV

     #   Z          covCN         q      C6AA      α(0)
     1   6 C        3.109    -0.042    28.887     8.806
     2   6 C        2.941    -0.020    28.497     8.755
     3  16 S        2.330    -0.033   142.415    20.085
     4   6 C        3.023     0.020    27.542     8.608
     5   6 C        3.023     0.020    27.542     8.608
     6   6 C        3.111    -0.051    29.107     8.839
     7   6 C        3.108    -0.042    28.890     8.806
     8   6 C        2.940    -0.020    28.498     8.755
     9  16 S        2.329    -0.033   142.411    20.085
    10   6 C        3.112    -0.051    29.105     8.838
    11   1 H        0.926     0.038     2.471     2.458
    12   1 H        0.926     0.045     2.386     2.416
    13   1 H        0.926     0.042     2.416     2.431
    14   1 H        0.926     0.038     2.470     2.458
    15   1 H        0.926     0.045     2.386     2.416
    16   1 H        0.926     0.042     2.418     2.431

Wiberg/Mayer (AO) data.
largest (>0.10) Wiberg bond orders for each atom

     #   Z sym  total        # sym  WBO       # sym  WBO       # sym  WBO
 ---------------------------------------------------------------------------
     1   6 C    3.988 --     2 C    1.609    10 C    1.295    11 H    0.965
     2   6 C    3.934 --     1 C    1.609     3 S    1.192    12 H    0.971
                             4 C    0.101
     3  16 S    2.605 --     2 C    1.192     4 C    1.127
     4   6 C    3.953 --    10 C    1.518     5 C    1.150     3 S    1.127
                             2 C    0.101
     5   6 C    3.953 --     6 C    1.518     4 C    1.150     9 S    1.127
                             8 C    0.101
     6   6 C    3.987 --     5 C    1.518     7 C    1.296    13 H    0.962
     7   6 C    3.988 --     8 C    1.608     6 C    1.296    14 H    0.965
     8   6 C    3.934 --     7 C    1.608     9 S    1.192    15 H    0.971
                             5 C    0.101
     9  16 S    2.606 --     8 C    1.192     5 C    1.127
    10   6 C    3.986 --     4 C    1.518     1 C    1.295    16 H    0.962
    11   1 H    0.998 --     1 C    0.965
    12   1 H    0.997 --     2 C    0.971
    13   1 H    0.998 --     6 C    0.962
    14   1 H    0.998 --     7 C    0.965
    15   1 H    0.997 --     8 C    0.971
    16   1 H    0.998 --    10 C    0.962
 ---------------------------------------------------------------------------

molecular dipole:
                 x           y           z       tot (Debye)
 q only:       -0.000      -0.000      -0.001
   full:        0.000      -0.000      -0.001       0.004

           -------------------------------------------------
          | TOTAL ENERGY              -26.648878216693 Eh   |
          | GRADIENT NORM               0.000731326575 Eh/α |
          | HOMO-LUMO GAP               2.664919575842 eV   |
           -------------------------------------------------

 * finished run on 2022/07/20 at 15:45:08.762
