   * xtb version 6.5.0 (746241f) compiled by 'ehlert@majestix' on 2022-05-15
          program call               : xtb -c 0 -u 0 h4fcl.xyz --opt normal

   ID    Z sym.   atoms
    1    6 C      1, 2
    2    1 H      3, 4, 7, 8
    3    9 F      5
    4   17 Cl     6

          :  Hamiltonian                  GFN2-xTB          :
 * total energy  :   -15.5961009 Eh     change       -0.7202363E-09 Eh
 * total energy  :   -15.5974032 Eh     change       -0.1302302E-02 Eh
 * total energy  :   -15.5974780 Eh     change       -0.7484628E-04 Eh
 * total energy  :   -15.5974803 Eh     change       -0.2263864E-05 Eh
   *** GEOMETRY OPTIMIZATION CONVERGED AFTER 4 ITERATIONS ***

 final structure:
================
8
 xtb: 6.5.0 (746241f)
C           -0.92024323791323        0.69551654207148       -0.02723379156804
C            0.56321328888595        1.03023069392945       -0.00434470547051
H            0.81883148724180        1.77144939440272       -0.76802546851254
H            0.88000030557759        1.38060233725830        0.98299498862612
F            1.28305184308059       -0.10341745479426       -0.28253386502180
Cl          -1.85428983007669        2.16319001780840        0.33298314367737
H           -1.22189764067717        0.33697400205985       -1.01193539471650
H           -1.16106621611883       -0.05174553273595        0.72959509298590

          :  Hamiltonian                  GFN2-xTB          :
         :: total energy             -15.597480302472 Eh    ::
         :: gradient norm              0.000446562405 Eh/a0 ::
         :: HOMO-LUMO gap              6.864939863256 eV    ::
         :: SCC energy               -15.689706016731 Eh    ::
         :: -> dispersion             -0.003332824213 Eh    ::
         :: repulsion energy           0.092225141611 Eh    ::

    * Orbital Energies and Occupations

         #    Occupation            Energy/Eh            Energy/eV
      -------------------------------------------------------------
         1        2.0000           -1.0675768             -29.0502
         2        2.0000           -0.8254532             -22.4617
         3        2.0000           -0.6648725             -18.0921
         4        2.0000           -0.6198762             -16.8677
         5        2.0000           -0.5744333             -15.6311
         6        2.0000           -0.5657202             -15.3940
         7        2.0000           -0.5526722             -15.0390
         8        2.0000           -0.5230418             -14.2327
         9        2.0000           -0.5138474             -13.9825
        10        2.0000           -0.4819864             -13.1155
        11        2.0000           -0.4685707             -12.7505
        12        2.0000           -0.4321592             -11.7597
        13        2.0000           -0.4297566             -11.6943 (HOMO)
        14                         -0.1774747              -4.8293 (LUMO)
        15                         -0.0048342              -0.1315
        16                          0.0031273               0.0851
        17                          0.0081271               0.2212
        18                          0.0091813               0.2498
        19                          0.0285804               0.7777
        20                          0.0863917               2.3508
        21                          0.1206040               3.2818
        22                          0.1386650               3.7733
        23                          0.1458507               3.9688
        24                          0.1544926               4.2040
        25                          0.2453481               6.6763
      -------------------------------------------------------------
                  HL-Gap            0.2522819 Eh            6.8649 eV

     #   Z          covCN         q      C6AA      α(0)
     1   6 C        3.714     0.019    20.380     6.450
     2   6 C        3.646     0.104    19.183     6.294
     3   1 H        0.924     0.071     2.071     2.251
     4   1 H        0.924     0.071     2.071     2.251
     5   9 F        0.784    -0.245    11.707     4.042
     6  17 Cl       0.928    -0.188   105.058    15.681
     7   1 H        0.925     0.084     1.942     2.179
     8   1 H        0.925     0.084     1.942     2.179

Wiberg/Mayer (AO) data.
largest (>0.10) Wiberg bond orders for each atom

     #   Z sym  total        # sym  WBO       # sym  WBO       # sym  WBO
 ---------------------------------------------------------------------------
     1   6 C    3.939 --     2 C    1.007     7 H    0.976     8 H    0.976
                             6 Cl   0.961
     2   6 C    3.901 --     1 C    1.007     4 H    0.969     3 H    0.969
                             5 F    0.942
     3   1 H    0.995 --     2 C    0.969
     4   1 H    0.995 --     2 C    0.969
     5   9 F    1.006 --     2 C    0.942
     6  17 Cl   1.003 --     1 C    0.961
     7   1 H    0.993 --     1 C    0.976
     8   1 H    0.993 --     1 C    0.976
 ---------------------------------------------------------------------------

molecular dipole:
                 x           y           z       tot (Debye)
 q only:       -0.004      -0.024      -0.005
   full:       -0.083       0.075       0.020       0.290

           -------------------------------------------------
          | TOTAL ENERGY              -15.597480302472 Eh   |
          | GRADIENT NORM               0.000446562405 Eh/α |
          | HOMO-LUMO GAP               6.864939863256 eV   |
           -------------------------------------------------

 * finished run on 2022/07/14 at 15:23:25.277
