   * xtb version 6.5.0 (746241f) compiled by 'ehlert@majestix' on 2022-05-15
          program call               : xtb -c 0 -u 0 --opt --molden naphthalene.xyz

   ID    Z sym.   atoms
    1    6 C      1-10
    2    1 H      11-18

          :  Hamiltonian                  GFN2-xTB          :
 * total energy  :   -25.4705480 Eh     change       -0.1035971E-10 Eh
 * total energy  :   -25.4738718 Eh     change       -0.3323827E-02 Eh
 * total energy  :   -25.4743519 Eh     change       -0.4800481E-03 Eh
 * total energy  :   -25.4743786 Eh     change       -0.2672271E-04 Eh
 * total energy  :   -25.4743846 Eh     change       -0.5974809E-05 Eh
 * total energy  :   -25.4743861 Eh     change       -0.1519183E-05 Eh
   *** GEOMETRY OPTIMIZATION CONVERGED AFTER 6 ITERATIONS ***

 final structure:
================
18
 xtb: 6.5.0 (746241f)
C           -1.23781058671818       -1.39195299398916       -0.00478163311617
C           -0.00278086835792       -0.71046608054426       -0.00415163694503
C            1.23166583249036       -1.39300770345401       -0.00384198387902
C            2.41147810134082       -0.70358458126690       -0.00323162589968
C            2.41207768809990        0.70033336385560       -0.00288759818413
C            1.23285470662682        1.39076402668811       -0.00317892686500
C           -0.00217446705096        0.70927712893662       -0.00382740165246
C           -1.23662159923881        1.39181894050397       -0.00417614938598
C           -2.41643354237711        0.70239605074183       -0.00481061092088
C           -2.41703322342599       -0.70152247219844       -0.00510094798795
H           -1.23322941828484       -2.47300144628158       -0.00503141595477
H            1.22616212230558       -2.47405177901251       -0.00408616004571
H            3.35312241577805       -1.23326117352588       -0.00298696230000
H            3.35417430984438        1.22920478356223       -0.00239284144826
H            1.22827435076231        2.47181243047472       -0.00292601564946
H           -1.23111713942535        2.47286307054235       -0.00391849829068
H           -3.35807843368583        1.23207164822487       -0.00506624109724
H           -3.35913024868325       -1.23039321325756       -0.00560335037760

          :  Hamiltonian                  GFN2-xTB          :
         :: total energy             -25.474386099963 Eh    ::
         :: gradient norm              0.000152582252 Eh/a0 ::
         :: HOMO-LUMO gap              3.249993395280 eV    ::
         :: SCC energy               -25.981637801977 Eh    ::
         :: -> dispersion             -0.016653350101 Eh    ::
         :: repulsion energy           0.507214617981 Eh    ::

    * Orbital Energies and Occupations

         #    Occupation            Energy/Eh            Energy/eV
      -------------------------------------------------------------
         1        2.0000           -0.6476415             -17.6232
       ...           ...                  ...                  ...
        12        2.0000           -0.4910054             -13.3609
        13        2.0000           -0.4897568             -13.3270
        14        2.0000           -0.4878394             -13.2748
        15        2.0000           -0.4729599             -12.8699
        16        2.0000           -0.4698245             -12.7846
        17        2.0000           -0.4599876             -12.5169
        18        2.0000           -0.4507043             -12.2643
        19        2.0000           -0.4398285             -11.9683
        20        2.0000           -0.4242605             -11.5447
        21        2.0000           -0.4153413             -11.3020
        22        2.0000           -0.4130066             -11.2385
        23        2.0000           -0.3984509             -10.8424
        24        2.0000           -0.3773679             -10.2687 (HOMO)
        25                         -0.2579328              -7.0187 (LUMO)
        26                         -0.2264281              -6.1614
        27                         -0.1869895              -5.0882
        28                         -0.1427773              -3.8852
        29                         -0.0538305              -1.4648
        30                          0.1103389               3.0025
        31                          0.1184874               3.2242
        32                          0.1448196               3.9407
        33                          0.1460354               3.9738
        34                          0.1675154               4.5583
        35                          0.1788975               4.8680
       ...                                ...                  ...
        48                          0.6999953              19.0478
      -------------------------------------------------------------
                  HL-Gap            0.1194351 Eh            3.2500 eV

     #   Z          covCN         q      C6AA      α(0)
     1   6 C        2.918    -0.035    28.875     8.812
     2   6 C        2.987     0.013    27.714     8.636
     3   6 C        2.918    -0.035    28.875     8.812
     4   6 C        2.916    -0.030    28.755     8.793
     5   6 C        2.916    -0.030    28.755     8.793
     6   6 C        2.918    -0.035    28.875     8.812
     7   6 C        2.987     0.013    27.714     8.636
     8   6 C        2.918    -0.035    28.875     8.812
     9   6 C        2.916    -0.030    28.755     8.793
    10   6 C        2.916    -0.030    28.755     8.793
    11   1 H        0.926     0.030     2.587     2.515
    12   1 H        0.926     0.030     2.587     2.515
    13   1 H        0.926     0.029     2.602     2.522
    14   1 H        0.926     0.029     2.602     2.522
    15   1 H        0.926     0.030     2.587     2.515
    16   1 H        0.926     0.030     2.587     2.515
    17   1 H        0.926     0.029     2.602     2.522
    18   1 H        0.926     0.029     2.602     2.522

Wiberg/Mayer (AO) data.
largest (>0.10) Wiberg bond orders for each atom

     #   Z sym  total        # sym  WBO       # sym  WBO       # sym  WBO
 ---------------------------------------------------------------------------
     1   6 C    3.992 --    10 C    1.558     2 C    1.280    11 H    0.969
                             8 C    0.119
     2   6 C    3.991 --     3 C    1.280     1 C    1.280     7 C    1.252
     3   6 C    3.992 --     4 C    1.558     2 C    1.280    12 H    0.969
                             6 C    0.119
     4   6 C    3.993 --     3 C    1.558     5 C    1.320    13 H    0.971
     5   6 C    3.993 --     6 C    1.558     4 C    1.320    14 H    0.971
     6   6 C    3.992 --     5 C    1.558     7 C    1.280    15 H    0.969
                             3 C    0.119
     7   6 C    3.991 --     6 C    1.280     8 C    1.280     2 C    1.252
     8   6 C    3.992 --     9 C    1.558     7 C    1.280    16 H    0.969
                             1 C    0.119
     9   6 C    3.993 --     8 C    1.558    10 C    1.320    17 H    0.971
    10   6 C    3.993 --     1 C    1.558     9 C    1.320    18 H    0.971
    11   1 H    0.999 --     1 C    0.969
    12   1 H    0.999 --     3 C    0.969
    13   1 H    0.999 --     4 C    0.971
    14   1 H    0.999 --     5 C    0.971
    15   1 H    0.999 --     6 C    0.969
    16   1 H    0.999 --     8 C    0.969
    17   1 H    0.999 --     9 C    0.971
    18   1 H    0.999 --    10 C    0.971
 ---------------------------------------------------------------------------

molecular dipole:
                 x           y           z       tot (Debye)
 q only:       -0.000      -0.000       0.000
   full:        0.000      -0.000       0.000       0.000

           -------------------------------------------------
          | TOTAL ENERGY              -25.474386099963 Eh   |
          | GRADIENT NORM               0.000152582252 Eh/α |
          | HOMO-LUMO GAP               3.249993395280 eV   |
           -------------------------------------------------

 * finished run on 2022/07/20 at 13:39:16.320
