   * xtb version 6.5.0 (746241f) compiled by 'ehlert@majestix' on 2022-05-15
          program call               : xtb -c 0 -u 0 h4fcl2.xyz --opt normal

   ID    Z sym.   atoms
    1    6 C      1, 2
    2    1 H      3, 4, 7, 8
    3    9 F      5
    4   17 Cl     6

          :  Hamiltonian                  GFN2-xTB          :
 * total energy  :   -15.5933250 Eh     change       -0.1080913E-10 Eh
 * total energy  :   -15.5949658 Eh     change       -0.1640716E-02 Eh
 * total energy  :   -15.5952269 Eh     change       -0.2611547E-03 Eh
 * total energy  :   -15.5953580 Eh     change       -0.1310835E-03 Eh
 * total energy  :   -15.5954194 Eh     change       -0.6137985E-04 Eh
 * total energy  :   -15.5954596 Eh     change       -0.4020545E-04 Eh
 * total energy  :   -15.5954796 Eh     change       -0.2003050E-04 Eh
 * total energy  :   -15.5954860 Eh     change       -0.6414353E-05 Eh
 * total energy  :   -15.5954866 Eh     change       -0.5643453E-06 Eh
   *** GEOMETRY OPTIMIZATION CONVERGED AFTER 9 ITERATIONS ***

 final structure:
================
8
 xtb: 6.5.0 (746241f)
C           -0.59487850826266        0.77458104213767       -0.03511099450368
C            0.76653284075747        1.11572964389501        0.54356166743416
H            1.55585655461367        0.85059188087064       -0.16958204813927
H            0.83857019760681        2.17347054062077        0.81396651029548
F            1.00783004100491        0.39220401923068        1.68020616367947
Cl          -1.91167083392053        1.54150300708424        0.89774662345557
H           -0.66992151389662        1.14042560629954       -1.05791460312529
H           -0.76031877790304       -0.30200574013855       -0.00207331909644

          :  Hamiltonian                  GFN2-xTB          :
         :: total energy             -15.595486590253 Eh    ::
         :: gradient norm              0.000236826380 Eh/a0 ::
         :: HOMO-LUMO gap              6.830369359514 eV    ::
         :: SCC energy               -15.687998479855 Eh    ::
         :: -> dispersion             -0.003381491176 Eh    ::
         :: repulsion energy           0.092511178152 Eh    ::

    * Orbital Energies and Occupations

         #    Occupation            Energy/Eh            Energy/eV
      -------------------------------------------------------------
         1        2.0000           -1.0591797             -28.8217
         2        2.0000           -0.8211994             -22.3460
         3        2.0000           -0.6657663             -18.1164
         4        2.0000           -0.6174487             -16.8016
         5        2.0000           -0.5685982             -15.4723
         6        2.0000           -0.5682016             -15.4616
         7        2.0000           -0.5494214             -14.9505
         8        2.0000           -0.5212262             -14.1833
         9        2.0000           -0.5100143             -13.8782
        10        2.0000           -0.4777155             -12.9993
        11        2.0000           -0.4651685             -12.6579
        12        2.0000           -0.4240103             -11.5379
        13        2.0000           -0.4222159             -11.4891 (HOMO)
        14                         -0.1712044              -4.6587 (LUMO)
        15                          0.0032109               0.0874
        16                          0.0091292               0.2484
        17                          0.0176243               0.4796
        18                          0.0176869               0.4813
        19                          0.0331704               0.9026
        20                          0.0805453               2.1917
        21                          0.1009916               2.7481
        22                          0.1363190               3.7094
        23                          0.1519642               4.1352
        24                          0.2008530               5.4655
        25                          0.2220659               6.0427
      -------------------------------------------------------------
                  HL-Gap            0.2510115 Eh            6.8304 eV

     #   Z          covCN         q      C6AA      α(0)
     1   6 C        3.713     0.016    20.436     6.459
     2   6 C        3.632     0.104    19.239     6.314
     3   1 H        0.924     0.064     2.152     2.294
     4   1 H        0.924     0.076     2.023     2.225
     5   9 F        0.784    -0.239    11.643     4.031
     6  17 Cl       0.913    -0.185   104.947    15.673
     7   1 H        0.925     0.075     2.034     2.230
     8   1 H        0.925     0.089     1.888     2.149

Wiberg/Mayer (AO) data.
largest (>0.10) Wiberg bond orders for each atom

     #   Z sym  total        # sym  WBO       # sym  WBO       # sym  WBO
 ---------------------------------------------------------------------------
     1   6 C    3.947 --     2 C    1.014     7 H    0.977     8 H    0.974
                             6 Cl   0.960
     2   6 C    3.909 --     1 C    1.014     4 H    0.967     3 H    0.963
                             5 F    0.949
     3   1 H    0.996 --     2 C    0.963
     4   1 H    0.994 --     2 C    0.967
     5   9 F    1.011 --     2 C    0.949
     6  17 Cl   1.003 --     1 C    0.960
     7   1 H    0.994 --     1 C    0.977
     8   1 H    0.992 --     1 C    0.974
 ---------------------------------------------------------------------------

molecular dipole:
                 x           y           z       tot (Debye)
 q only:        0.432       0.052      -1.020
   full:        0.375       0.100      -1.084       2.927

           -------------------------------------------------
          | TOTAL ENERGY              -15.595486590253 Eh   |
          | GRADIENT NORM               0.000236826380 Eh/α |
          | HOMO-LUMO GAP               6.830369359514 eV   |
           -------------------------------------------------

 * finished run on 2022/07/14 at 15:23:25.244
