   * xtb version 6.5.0 (746241f) compiled by 'ehlert@majestix' on 2022-05-15
          program call               : xtb -c 0 -u 0 --opt --molden oligothiophene_n3.xyz

   ID    Z sym.   atoms
    1    6 C      1, 2, 4-12, 15
    2   16 S      3, 13, 14
    3    1 H      16-23

          :  Hamiltonian                  GFN2-xTB          :
 * total energy  :   -35.2896089 Eh     change       -0.8451195E-10 Eh
 * total energy  :   -37.7639623 Eh     change       -0.2474353E+01 Eh
 * total energy  :   -38.3833886 Eh     change       -0.6194263E+00 Eh
 * total energy  :   -38.8064258 Eh     change       -0.4230373E+00 Eh
 * total energy  :   -39.0840644 Eh     change       -0.2776385E+00 Eh
 * total energy  :   -39.2243874 Eh     change       -0.1403230E+00 Eh
 * total energy  :   -39.2975247 Eh     change       -0.7313727E-01 Eh
 * total energy  :   -39.3455336 Eh     change       -0.4800893E-01 Eh
 * total energy  :   -39.3815531 Eh     change       -0.3601952E-01 Eh
 * total energy  :   -39.4095000 Eh     change       -0.2794688E-01 Eh
 * total energy  :   -39.4805126 Eh     change       -0.1321152E-03 Eh
 * total energy  :   -39.4806306 Eh     change       -0.1180238E-03 Eh
 * total energy  :   -39.4806852 Eh     change       -0.5455163E-04 Eh
 * total energy  :   -39.4807187 Eh     change       -0.3351121E-04 Eh
 * total energy  :   -39.4807446 Eh     change       -0.2588125E-04 Eh
 * total energy  :   -39.4807661 Eh     change       -0.2153534E-04 Eh
 * total energy  :   -39.4807828 Eh     change       -0.1670977E-04 Eh
 * total energy  :   -39.4807914 Eh     change       -0.8584841E-05 Eh
 * total energy  :   -39.4807934 Eh     change       -0.1958267E-05 Eh
   *** GEOMETRY OPTIMIZATION CONVERGED AFTER 36 ITERATIONS ***

 final structure:
================
23
 xtb: 6.5.0 (746241f)
C            1.78164403143361        6.36355537689328       -1.02833084110562
C            2.47865395479348        6.49065967170562        0.13112245453096
S            2.53979838571234        5.02014583369123        1.01866636461469
C            1.60183229282976        4.20457288583385       -0.20249656072089
C            1.26777021343445        2.82571979989757       -0.06537242466789
C            1.59788277337534        1.96745128261156        0.95511886760248
C            1.10806173935921        0.67020631178599        0.77192296056943
C            0.39389640821692        0.51461864894507       -0.39114857127115
C           -0.23952204406402       -0.66162882078190       -0.88800062756052
C           -0.97854496421476       -0.81423037160832       -2.03331500579834
C           -1.45559931930592       -2.12546003852642       -2.21232624940332
C           -1.08094667497867       -2.96268293169750       -1.20974565505076
S           -0.13272834608961       -2.16736593872628       -0.01724540911608
S            0.32512909741224        2.00997057462167       -1.28224208687826
C            1.28027011011993        5.06354127658146       -1.22230090588904
H            1.63019999273894        7.17086643298366       -1.72229545233323
H            2.96459997750394        7.36003466826845        0.52670032704591
H            2.17782731671632        2.27808049332108        1.80620219666922
H            1.26589728662884       -0.13705000814276        1.46516045011421
H           -1.16638126738701       -0.00379775797652       -2.71505988003371
H           -2.05305654095578       -2.43336557539412       -3.05170198306186
H           -1.30144213344246       -4.00481807179257       -1.09201975429860
H            0.70325771016194        4.75907625750606       -2.07739221395855

          :  Hamiltonian                  GFN2-xTB          :
         :: total energy             -39.480793353716 Eh    ::
         :: gradient norm              0.000256280622 Eh/a0 ::
         :: HOMO-LUMO gap              2.094258614860 eV    ::
         :: SCC energy               -40.087969188470 Eh    ::
         :: -> dispersion             -0.029116986648 Eh    ::
         :: repulsion energy           0.607464695117 Eh    ::

    * Orbital Energies and Occupations

         #    Occupation            Energy/Eh            Energy/eV
      -------------------------------------------------------------
         1        2.0000           -0.7337016             -19.9650
       ...           ...                  ...                  ...
        25        2.0000           -0.4694071             -12.7732
        26        2.0000           -0.4661322             -12.6841
        27        2.0000           -0.4623712             -12.5818
        28        2.0000           -0.4564049             -12.4194
        29        2.0000           -0.4534173             -12.3381
        30        2.0000           -0.4498545             -12.2412
        31        2.0000           -0.4453776             -12.1193
        32        2.0000           -0.4349659             -11.8360
        33        2.0000           -0.4046390             -11.0108
        34        2.0000           -0.4004914             -10.8979
        35        2.0000           -0.4001998             -10.8900
        36        2.0000           -0.3958617             -10.7719
        37        2.0000           -0.3617588              -9.8440 (HOMO)
        38                         -0.2847963              -7.7497 (LUMO)
        39                         -0.2475055              -6.7350
        40                         -0.2168409              -5.9005
        41                         -0.2110746              -5.7436
        42                         -0.2086627              -5.6780
        43                         -0.1980492              -5.3892
        44                         -0.1809874              -4.9249
        45                         -0.1578934              -4.2965
        46                         -0.1456352              -3.9629
        47                         -0.1445476              -3.9333
        48                         -0.1161636              -3.1610
       ...                                ...                  ...
        83                          0.7054363              19.1959
      -------------------------------------------------------------
                  HL-Gap            0.0769626 Eh            2.0943 eV

     #   Z          covCN         q      C6AA      α(0)
     1   6 C        3.108    -0.041    28.879     8.805
     2   6 C        2.940    -0.019    28.491     8.754
     3  16 S        2.328    -0.031   142.328    20.079
     4   6 C        3.023     0.020    27.536     8.608
     5   6 C        3.022     0.021    27.503     8.602
     6   6 C        3.098    -0.048    29.073     8.836
     7   6 C        3.098    -0.048    29.073     8.836
     8   6 C        3.022     0.021    27.503     8.602
     9   6 C        3.023     0.020    27.537     8.608
    10   6 C        3.110    -0.051    29.100     8.838
    11   6 C        3.108    -0.041    28.879     8.805
    12   6 C        2.940    -0.019    28.491     8.754
    13  16 S        2.328    -0.031   142.328    20.079
    14  16 S        2.346    -0.045   142.918    20.121
    15   6 C        3.110    -0.051    29.100     8.838
    16   1 H        0.926     0.039     2.462     2.454
    17   1 H        0.926     0.045     2.377     2.411
    18   1 H        0.926     0.044     2.390     2.418
    19   1 H        0.926     0.044     2.390     2.418
    20   1 H        0.926     0.043     2.414     2.430
    21   1 H        0.926     0.039     2.462     2.454
    22   1 H        0.926     0.045     2.377     2.411
    23   1 H        0.926     0.043     2.415     2.430

Wiberg/Mayer (AO) data.
largest (>0.10) Wiberg bond orders for each atom

     #   Z sym  total        # sym  WBO       # sym  WBO       # sym  WBO
 ---------------------------------------------------------------------------
     1   6 C    3.987 --     2 C    1.604    15 C    1.300    16 H    0.965
     2   6 C    3.926 --     1 C    1.604     3 S    1.193    17 H    0.970
     3  16 S    2.600 --     2 C    1.193     4 C    1.125
     4   6 C    3.952 --    15 C    1.507     5 C    1.162     3 S    1.125
     5   6 C    3.939 --     6 C    1.485     4 C    1.162    14 S    1.122
     6   6 C    3.986 --     5 C    1.485     7 C    1.336    18 H    0.961
     7   6 C    3.986 --     8 C    1.485     6 C    1.336    19 H    0.961
     8   6 C    3.939 --     7 C    1.485     9 C    1.162    14 S    1.122
     9   6 C    3.952 --    10 C    1.507     8 C    1.162    13 S    1.125
    10   6 C    3.972 --     9 C    1.507    11 C    1.300    20 H    0.962
    11   6 C    3.987 --    12 C    1.604    10 C    1.300    21 H    0.965
    12   6 C    3.926 --    11 C    1.604    13 S    1.193    22 H    0.970
    13  16 S    2.600 --    12 C    1.193     9 C    1.125
    14  16 S    2.570 --     5 C    1.122     8 C    1.122
    15   6 C    3.972 --     4 C    1.507     1 C    1.300    23 H    0.962
    16   1 H    0.998 --     1 C    0.965
    17   1 H    0.997 --     2 C    0.970
    18   1 H    0.998 --     6 C    0.961
    19   1 H    0.998 --     7 C    0.961
    20   1 H    0.998 --    10 C    0.962
    21   1 H    0.998 --    11 C    0.965
    22   1 H    0.997 --    12 C    0.970
    23   1 H    0.998 --    15 C    0.962
 ---------------------------------------------------------------------------

molecular dipole:
                 x           y           z       tot (Debye)
 q only:       -0.038       0.025      -0.074
   full:       -0.152       0.100      -0.301       0.893

           -------------------------------------------------
          | TOTAL ENERGY              -39.480793353716 Eh   |
          | GRADIENT NORM               0.000256280622 Eh/α |
          | HOMO-LUMO GAP               2.094258614860 eV   |
           -------------------------------------------------

 * finished run on 2022/07/20 at 15:45:09.276
