 Gaussian 16, Revision B.01,
 Gaussian 16:  ES64L-G16RevB.01 20-Dec-2017

 -------------------------------------------------------------
 #P opt freq b3lyp/6-31G(d,p) nosymm empiricaldispersion=GD3BJ
 -------------------------------------------------------------

 -----
 TITLE
 -----
 Symbolic Z-matrix:
 Charge =  0 Multiplicity = 1

 SCF Done:  E(RB3LYP) =  -1.17790752086     A.U. after    6 cycles
 SCF Done:  E(RB3LYP) =  -1.17867977466     A.U. after    5 cycles
 SCF Done:  E(RB3LYP) =  -1.17868007880     A.U. after    4 cycles
 Optimization completed.
    -- Stationary point found.
 Normal termination of Gaussian 16 at Tue Aug 16 11:26:21 2022.

 ----------------------------------------------------------------------
 #P Geom=AllCheck Guess=TCheck SCRF=Check GenChk RB3LYP/6-31G(d,p) Freq
 ----------------------------------------------------------------------

 Structure from the checkpoint file:  "/usr/scratch/link/Gau-22353.chk"
 -----
 TITLE
 -----
 Charge =  0 Multiplicity = 1

                          Input orientation:
 ---------------------------------------------------------------------
 Center     Atomic      Atomic             Coordinates (Angstroms)
 Number     Number       Type             X           Y           Z
 ---------------------------------------------------------------------
      1          1           0       -0.553674    0.784465    0.000001
      2          1           0        0.187442    0.835117   -0.000002
 ---------------------------------------------------------------------

 SCF Done:  E(RB3LYP) =  -1.17868007880     A.U. after    1 cycles

 Alpha  occ. eigenvalues --   -0.43157
 Alpha virt. eigenvalues --    0.10095   0.57702   1.03605   1.67471   1.67471
 Alpha virt. eigenvalues --    2.37878   2.61561   2.61561   4.15261

 Mulliken charges:
               1
     1  H    0.000000
     2  H    0.000000
 Sum of Mulliken charges =   0.00000

 Dipole moment (field-independent basis, Debye):
    X=              0.0000    Y=              0.0000    Z=              0.0000  Tot=              0.0000
 Quadrupole moment (field-independent basis, Debye-Ang):
   XX=             -1.5100   YY=             -2.0267   ZZ=             -2.0292
   XY=              0.0355   XZ=              0.0000   YZ=              0.0000

  Exact polarizability:   6.339   0.393   0.609   0.000   0.000   0.582
 Approx polarizability:   7.732   0.487   0.632   0.000   0.000   0.599

                      1
                      A
 Frequencies --   4461.2550
 Red. masses --      1.0078
 Frc consts  --     11.8181
 IR Inten    --      0.0000

 - Thermochemistry -
 -------------------
 Temperature   298.150 Kelvin.  Pressure   1.00000 Atm.
 Atom     1 has atomic number  1 and mass   1.00783

 Molecular mass:     2.01565 amu.
 Principal axes and moments of inertia in atomic units:
                           1         2         3
     Eigenvalues --     0.00000   0.99300   0.99300
           X            0.99767   0.00000  -0.06819
           Y            0.06819   0.00000   0.99767
           Z            0.00000   1.00000   0.00000
 This molecule is a prolate symmetric top.
 Rotational symmetry number  2.
 Rotational temperature (Kelvin)     87.22444
 Rotational constant (GHZ):        1817.462235
 Zero-point vibrational energy      26684.2 (Joules/Mol)
                                    6.37768 (Kcal/Mol)
 Vibrational temperatures:   6418.75
          (Kelvin)

 Zero-point correction=                           0.010163 (Hartree/Particle)
 Thermal correction to Energy=                    0.012524
 Thermal correction to Enthalpy=                  0.013468
 Thermal correction to Gibbs Free Energy=        -0.001324
 Sum of electronic and zero-point Energies=             -1.168517
 Sum of electronic and thermal Energies=                -1.166156
 Sum of electronic and thermal Enthalpies=              -1.165212
 Sum of electronic and thermal Free Energies=           -1.180004

                     E (Thermal)             CV                S
                      KCal/Mol        Cal/Mol-Kelvin    Cal/Mol-Kelvin
 Total                    7.859              4.968             31.133
 Electronic               0.000              0.000              0.000
 Translational            0.889              2.981             28.080
 Rotational               0.592              1.987              3.052
 Vibrational              6.378              0.000              0.000

 Optimization completed.
    -- Stationary point found.
 Normal termination of Gaussian 16 at Tue Aug 16 11:26:25 2022.
