 Gaussian 16, Revision B.01,
 Gaussian 16:  ES64L-G16RevB.01 20-Dec-2017

 -------------------------------------------------------------
 #P opt freq b3lyp/6-31G(d,p) nosymm empiricaldispersion=GD3BJ
 -------------------------------------------------------------

 -----
 TITLE
 -----
 Symbolic Z-matrix:
 Charge =  0 Multiplicity = 1

 SCF Done:  E(RB3LYP) =  -109.524727350     A.U. after    8 cycles
 SCF Done:  E(RB3LYP) =  -109.524880266     A.U. after    6 cycles
 SCF Done:  E(RB3LYP) =  -109.524881241     A.U. after    5 cycles
 Optimization completed.
    -- Stationary point found.
 Normal termination of Gaussian 16 at Tue Aug 16 11:26:25 2022.

 ----------------------------------------------------------------------
 #P Geom=AllCheck Guess=TCheck SCRF=Check GenChk RB3LYP/6-31G(d,p) Freq
 ----------------------------------------------------------------------

 Structure from the checkpoint file:  "/usr/scratch/link/Gau-1033.chk"
 -----
 TITLE
 -----
 Charge =  0 Multiplicity = 1

                          Input orientation:
 ---------------------------------------------------------------------
 Center     Atomic      Atomic             Coordinates (Angstroms)
 Number     Number       Type             X           Y           Z
 ---------------------------------------------------------------------
      1          7           0       -0.789043    0.320748   -0.722079
      2          7           0        0.020474    0.225454    0.024731
 ---------------------------------------------------------------------

 SCF Done:  E(RB3LYP) =  -109.524881241     A.U. after    1 cycles

 Alpha  occ. eigenvalues --  -14.44676 -14.44512  -1.12384  -0.55342  -0.46240
 Alpha  occ. eigenvalues --   -0.46240  -0.42688
 Alpha virt. eigenvalues --   -0.02412  -0.02412   0.41366   0.59105   0.60590
 Alpha virt. eigenvalues --    0.60590   0.64005   0.75115   0.75115   0.78521
 Alpha virt. eigenvalues --    1.23891   1.44991   1.44991   1.54800   1.54800

 Mulliken charges:
               1
     1  N    0.000000
     2  N    0.000000
 Sum of Mulliken charges =   0.00000

 Dipole moment (field-independent basis, Debye):
    X=              0.0000    Y=              0.0000    Z=              0.0000  Tot=              0.0000
 Quadrupole moment (field-independent basis, Debye-Ang):
   XX=            -10.8844   YY=            -10.0605   ZZ=            -10.7600
   XY=              0.0983   XZ=             -0.7708   YZ=              0.0907

  Exact polarizability:   9.996  -0.454   6.191   3.560  -0.419   9.422
 Approx polarizability:  18.555  -1.196   8.540   9.370  -1.103  17.043

                      1
                      A
 Frequencies --   2457.3116
 Red. masses --     14.0031
 Frc consts  --     49.8189
 IR Inten    --      0.0000

 - Thermochemistry -
 -------------------
 Temperature   298.150 Kelvin.  Pressure   1.00000 Atm.
 Atom     1 has atomic number  7 and mass  14.00307

 Molecular mass:    28.00615 amu.
 Principal axes and moments of inertia in atomic units:
                           1         2         3
     Eigenvalues --     0.00000  30.55667  30.55667
           X            0.73227   0.62139  -0.27869
           Y           -0.08620   0.49050   0.86717
           Z            0.67554  -0.61097   0.41274
 This molecule is a prolate symmetric top.
 Rotational symmetry number  2.
 Rotational temperature (Kelvin)      2.83453
 Rotational constant (GHZ):          59.062099
 Zero-point vibrational energy      14698.0 (Joules/Mol)
                                    3.51290 (Kcal/Mol)
 Vibrational temperatures:   3535.52
          (Kelvin)

 Zero-point correction=                           0.005598 (Hartree/Particle)
 Thermal correction to Energy=                    0.007959
 Thermal correction to Enthalpy=                  0.008903
 Thermal correction to Gibbs Free Energy=        -0.012852
 Sum of electronic and zero-point Energies=           -109.519283
 Sum of electronic and thermal Energies=              -109.516923
 Sum of electronic and thermal Enthalpies=            -109.515978
 Sum of electronic and thermal Free Energies=         -109.537733

                     E (Thermal)             CV                S
                      KCal/Mol        Cal/Mol-Kelvin    Cal/Mol-Kelvin
 Total                    4.994              4.970             45.786
 Electronic               0.000              0.000              0.000
 Translational            0.889              2.981             35.924
 Rotational               0.592              1.987              9.862
 Vibrational              3.513              0.002              0.000

 Optimization completed.
    -- Stationary point found.
 Normal termination of Gaussian 16 at Tue Aug 16 11:26:30 2022.
