 Gaussian 16, Revision B.01,
 Gaussian 16:  ES64L-G16RevB.01 20-Dec-2017

 -------------------------------------------------------------
 #P opt freq b3lyp/6-31G(d,p) nosymm empiricaldispersion=GD3BJ
 -------------------------------------------------------------

 -----
 TITLE
 -----
 Symbolic Z-matrix:
 Charge =  0 Multiplicity = 1

 SCF Done:  E(RB3LYP) =  -56.5587788138     A.U. after    9 cycles
 SCF Done:  E(RB3LYP) =  -56.5589501413     A.U. after    9 cycles
 SCF Done:  E(RB3LYP) =  -56.5589881923     A.U. after    7 cycles
 Optimization completed.
    -- Stationary point found.
 Normal termination of Gaussian 16 at Tue Aug 16 11:26:29 2022.

 ----------------------------------------------------------------------
 #P Geom=AllCheck Guess=TCheck SCRF=Check GenChk RB3LYP/6-31G(d,p) Freq
 ----------------------------------------------------------------------

 Structure from the checkpoint file:  "/usr/scratch/link/Gau-4993.chk"
 -----
 TITLE
 -----
 Charge =  0 Multiplicity = 1

                          Input orientation:
 ---------------------------------------------------------------------
 Center     Atomic      Atomic             Coordinates (Angstroms)
 Number     Number       Type             X           Y           Z
 ---------------------------------------------------------------------
      1          7           0       -0.238233    0.803398   -0.149933
      2          1           0        0.777776    0.831216   -0.205578
      3          1           0       -0.547731    0.312575   -0.986264
      4          1           0       -0.547588    1.766431   -0.264470
 ---------------------------------------------------------------------

 SCF Done:  E(RB3LYP) =  -56.5589881923     A.U. after    1 cycles

 Alpha  occ. eigenvalues --  -14.30566  -0.84466  -0.45035  -0.45028  -0.25316
 Alpha virt. eigenvalues --    0.07987   0.16923   0.16926   0.67848   0.67856
 Alpha virt. eigenvalues --    0.71437   0.87557   0.87560   0.88553   1.13368
 Alpha virt. eigenvalues --    1.41875   1.41886   1.83064   2.09376   2.24212

 Mulliken charges:
               1
     1  N   -0.717063
     2  H    0.239032
     3  H    0.239032
     4  H    0.238999
 Sum of Mulliken charges =   0.00000

 Dipole moment (field-independent basis, Debye):
    X=              0.6153    Y=              0.7742    Z=             -1.5590  Tot=              1.8462
 Quadrupole moment (field-independent basis, Debye-Ang):
   XX=             -6.6877   YY=             -5.2883   ZZ=             -7.2058
   XY=              0.0135   XZ=              0.8774   YZ=             -0.6168

  Exact polarizability:   9.408  -0.525   9.165   1.059   1.330   7.144
 Approx polarizability:  11.387  -0.671  11.077   1.354   1.701   8.493

                      1                      2                      3
                      A                      A                      A
 Frequencies --   1088.9180              1693.8046              1694.0463
 Red. masses --      1.1800                 1.0645                 1.0644
 Frc consts  --      0.8244                 1.7993                 1.7998
 IR Inten    --    145.5441                13.5717                13.5620

                      4                      5                      6
                      A                      A                      A
 Frequencies --   3461.7738              3590.0591              3590.6027
 Red. masses --      1.0272                 1.0883                 1.0884
 Frc consts  --      7.2529                 8.2645                 8.2672
 IR Inten    --      1.0557                 0.2694                 0.2639

 - Thermochemistry -
 -------------------
 Temperature   298.150 Kelvin.  Pressure   1.00000 Atm.
 Atom     1 has atomic number  7 and mass  14.00307

 Molecular mass:    17.02655 amu.
 Principal axes and moments of inertia in atomic units:
                           1         2         3
     Eigenvalues --     6.14253   6.14431   9.48315
           X            0.81714  -0.47025  -0.33340
           Y            0.31833   0.85030  -0.41911
           Z            0.48058   0.23634   0.84451
 This molecule is an asymmetric top.
 Rotational symmetry number  1.
 Rotational temperatures (Kelvin)     14.10068    14.09661     9.13346
 Rotational constants (GHZ):         293.81056   293.72558   190.31034
 Zero-point vibrational energy      90432.9 (Joules/Mol)
                                   21.61399 (Kcal/Mol)
 Vibrational temperatures:   1566.71  2437.01  2437.35  4980.72  5165.29
          (Kelvin)           5166.08

 Zero-point correction=                           0.034444 (Hartree/Particle)
 Thermal correction to Energy=                    0.037307
 Thermal correction to Enthalpy=                  0.038251
 Thermal correction to Gibbs Free Energy=         0.015368
 Sum of electronic and zero-point Energies=            -56.524544
 Sum of electronic and thermal Energies=               -56.521681
 Sum of electronic and thermal Enthalpies=             -56.520737
 Sum of electronic and thermal Free Energies=          -56.543620

                     E (Thermal)             CV                S
                      KCal/Mol        Cal/Mol-Kelvin    Cal/Mol-Kelvin
 Total                   23.411              6.326             48.162
 Electronic               0.000              0.000              0.000
 Translational            0.889              2.981             34.441
 Rotational               0.889              2.981             13.646
 Vibrational             21.633              0.365              0.076

 Optimization completed.
    -- Stationary point found.
 Normal termination of Gaussian 16 at Tue Aug 16 11:26:34 2022.
