   * xtb version 6.5.0 (746241f) compiled by 'ehlert@majestix' on 2022-05-15
          program call               : xtb -c 0 -u 0 --opt --molden oligothiophene_n1.xyz

   ID    Z sym.   atoms
    1    6 C      1-3, 5
    2   16 S      4
    3    1 H      6-9

          :  Hamiltonian                  GFN2-xTB          :
 * total energy  :   -13.8168025 Eh     change       -0.5449756E-09 Eh
 * total energy  :   -13.8181338 Eh     change       -0.1331235E-02 Eh
 * total energy  :   -13.8182440 Eh     change       -0.1102438E-03 Eh
 * total energy  :   -13.8182690 Eh     change       -0.2500086E-04 Eh
 * total energy  :   -13.8182738 Eh     change       -0.4779421E-05 Eh
   *** GEOMETRY OPTIMIZATION CONVERGED AFTER 5 ITERATIONS ***

 final structure:
================
9
 xtb: 6.5.0 (746241f)
C            1.37607917726025       -0.70077399978824        0.00097324094769
C            1.37070039909071        0.71414517952385        0.00101264503474
C            0.11578190458077        1.22736259604743       -0.00553967166490
S           -1.08473325981530       -0.00265827627950       -0.01619727290235
C            0.12509794670752       -1.22351600728574       -0.00557762640675
H            2.27209431396561       -1.29498608771260        0.00567148277630
H            2.26217401053271        1.31514874505626        0.00574127040033
H           -0.18656723298766        2.25550070187080       -0.00700230892264
H           -0.16942725933462       -2.25392285143226       -0.00708175926243

          :  Hamiltonian                  GFN2-xTB          :
         :: total energy             -13.818273797986 Eh    ::
         :: gradient norm              0.000814947573 Eh/a0 ::
         :: HOMO-LUMO gap              4.100267224263 eV    ::
         :: SCC energy               -14.035667174638 Eh    ::
         :: -> dispersion             -0.006274104638 Eh    ::
         :: repulsion energy           0.217391570904 Eh    ::

    * Orbital Energies and Occupations

         #    Occupation            Energy/Eh            Energy/eV
      -------------------------------------------------------------
         1        2.0000           -0.7286575             -19.8278
         2        2.0000           -0.6404910             -17.4286
         3        2.0000           -0.6118627             -16.6496
         4        2.0000           -0.5695317             -15.4977
         5        2.0000           -0.5526856             -15.0393
         6        2.0000           -0.5344493             -14.5431
         7        2.0000           -0.4810413             -13.0898
         8        2.0000           -0.4731769             -12.8758
         9        2.0000           -0.4679999             -12.7349
        10        2.0000           -0.4628165             -12.5939
        11        2.0000           -0.4487353             -12.2107
        12        2.0000           -0.3958843             -10.7726
        13        2.0000           -0.3930274             -10.6948 (HOMO)
        14                         -0.2423454              -6.5946 (LUMO)
        15                         -0.1980660              -5.3897
        16                         -0.1671633              -4.5487
        17                         -0.1112573              -3.0275
        18                          0.0032409               0.0882
        19                          0.0329066               0.8954
        20                          0.0388065               1.0560
        21                          0.1322836               3.5996
        22                          0.1565415               4.2597
        23                          0.2040435               5.5523
        24                          0.2228001               6.0627
       ...                                ...                  ...
        29                          0.7080996              19.2684
      -------------------------------------------------------------
                  HL-Gap            0.1506820 Eh            4.1003 eV

     #   Z          covCN         q      C6AA      α(0)
     1   6 C        3.122    -0.044    28.914     8.806
     2   6 C        3.122    -0.044    28.914     8.806
     3   6 C        2.942    -0.021    28.523     8.759
     4  16 S        2.314    -0.025   142.088    20.062
     5   6 C        2.942    -0.021    28.523     8.759
     6   1 H        0.926     0.036     2.506     2.476
     7   1 H        0.926     0.036     2.506     2.476
     8   1 H        0.926     0.042     2.424     2.435
     9   1 H        0.926     0.042     2.424     2.435

Wiberg/Mayer (AO) data.
largest (>0.10) Wiberg bond orders for each atom

     #   Z sym  total        # sym  WBO       # sym  WBO       # sym  WBO
 ---------------------------------------------------------------------------
     1   6 C    3.988 --     5 C    1.635     2 C    1.267     6 H    0.965
     2   6 C    3.988 --     3 C    1.635     1 C    1.267     7 H    0.965
     3   6 C    3.950 --     2 C    1.635     4 S    1.196     8 H    0.972
                             5 C    0.120
     4  16 S    2.633 --     5 C    1.196     3 C    1.196
     5   6 C    3.950 --     1 C    1.635     4 S    1.196     9 H    0.972
                             3 C    0.120
     6   1 H    0.999 --     1 C    0.965
     7   1 H    0.999 --     2 C    0.965
     8   1 H    0.998 --     3 C    0.972
     9   1 H    0.998 --     5 C    0.972
 ---------------------------------------------------------------------------

molecular dipole:
                 x           y           z       tot (Debye)
 q only:        0.090       0.000       0.001
   full:        0.359       0.001       0.002       0.912

           -------------------------------------------------
          | TOTAL ENERGY              -13.818273797986 Eh   |
          | GRADIENT NORM               0.000814947573 Eh/α |
          | HOMO-LUMO GAP               4.100267224263 eV   |
           -------------------------------------------------

 * finished run on 2022/07/20 at 15:45:08.429
