   * xtb version 6.5.0 (746241f) compiled by 'ehlert@majestix' on 2022-05-15
          program call               : xtb -c 0 -u 0 --opt --molden sp.xyz

   ID    Z sym.   atoms
    1   23 V      1
    2    9 F      2-6

          :  Hamiltonian                  GFN2-xTB          :
 * total energy  :   -25.7098447 Eh     change       -0.5390572E-08 Eh
 * total energy  :   -25.7619141 Eh     change       -0.5206940E-01 Eh
 * total energy  :   -25.8234321 Eh     change       -0.6151798E-01 Eh
 * total energy  :   -25.8281501 Eh     change       -0.4718059E-02 Eh
 * total energy  :   -25.8288903 Eh     change       -0.7402027E-03 Eh
 * total energy  :   -25.8285449 Eh     change        0.3454038E-03 Eh
 * total energy  :   -25.8302980 Eh     change       -0.1753066E-02 Eh
 * total energy  :   -25.8305258 Eh     change       -0.2278228E-03 Eh
 * total energy  :   -25.8309374 Eh     change       -0.4115834E-03 Eh
 * total energy  :   -25.8309459 Eh     change       -0.8471750E-05 Eh
 * total energy  :   -25.8309633 Eh     change       -0.1747549E-04 Eh
 * total energy  :   -25.8309633 Eh     change       -0.1243168E-07 Eh
   *** GEOMETRY OPTIMIZATION CONVERGED AFTER 12 ITERATIONS ***

 final structure:
================
6
 xtb: 6.5.0 (746241f)
V           -0.15549919311859        2.21016634734309        0.10080813421938
F           -1.18405322549493        1.60053922638913       -1.03660979275505
F           -0.38108670582996        0.81316629573343        0.94994718950946
F            1.27938553299702        2.37809223530902        0.89839926207721
F            0.47584014356179        3.16499422456577       -1.08779289984505
F           -1.11878655211533        3.25824167065956        0.90564810679405

          :  Hamiltonian                  GFN2-xTB          :
         :: total energy             -25.830963344050 Eh    ::
         :: gradient norm              0.000273481891 Eh/a0 ::
         :: HOMO-LUMO gap              3.742975251236 eV    ::
         :: SCC energy               -25.877908909687 Eh    ::
         :: -> dispersion             -0.002595184152 Eh    ::
         :: repulsion energy           0.046945173299 Eh    ::

    * Orbital Energies and Occupations

         #    Occupation            Energy/Eh            Energy/eV
      -------------------------------------------------------------
         1        2.0000           -0.9711452             -26.4262
       ...           ...                  ...                  ...
         8        2.0000           -0.6107416             -16.6191
         9        2.0000           -0.6106005             -16.6153
        10        2.0000           -0.5966819             -16.2365
        11        2.0000           -0.5858215             -15.9410
        12        2.0000           -0.5838791             -15.8882
        13        2.0000           -0.5838657             -15.8878
        14        2.0000           -0.5806546             -15.8004
        15        2.0000           -0.5727059             -15.5841
        16        2.0000           -0.5726928             -15.5838
        17        2.0000           -0.5639967             -15.3471
        18        2.0000           -0.5616666             -15.2837
        19        2.0000           -0.5616359             -15.2829
        20        2.0000           -0.5551492             -15.1064 (HOMO)
        21                         -0.4175974             -11.3634 (LUMO)
        22                         -0.4175641             -11.3625
        23                         -0.4172553             -11.3541
        24                         -0.3461892              -9.4203
        25                         -0.0226112              -0.6153
        26                          0.3702891              10.0761
        27                          0.4853506              13.2071
        28                          0.4857447              13.2178
        29                          0.6225492              16.9404
      -------------------------------------------------------------
                  HL-Gap            0.1375518 Eh            3.7430 eV

     #   Z          covCN         q      C6AA      α(0)
     1  23 V        3.373     0.719   113.297    19.219
     2   9 F        0.675    -0.155    10.800     3.880
     3   9 F        0.675    -0.155    10.800     3.880
     4   9 F        0.675    -0.155    10.800     3.880
     5   9 F        0.675    -0.155    10.800     3.880
     6   9 F        0.675    -0.099    10.257     3.781

Wiberg/Mayer (AO) data.
largest (>0.10) Wiberg bond orders for each atom

     #   Z sym  total        # sym  WBO       # sym  WBO       # sym  WBO
 ---------------------------------------------------------------------------
     1  23 V    6.333 --     6 F    1.343     4 F    1.247     5 F    1.247
                             2 F    1.247     3 F    1.247
     2   9 F    1.471 --     1 V    1.247
     3   9 F    1.471 --     1 V    1.247
     4   9 F    1.471 --     1 V    1.247
     5   9 F    1.471 --     1 V    1.247
     6   9 F    1.564 --     1 V    1.343
 ---------------------------------------------------------------------------

molecular dipole:
                 x           y           z       tot (Debye)
 q only:       -0.059       0.064       0.049
   full:        0.027      -0.029      -0.022       0.114

           -------------------------------------------------
          | TOTAL ENERGY              -25.830963344050 Eh   |
          | GRADIENT NORM               0.000273481891 Eh/α |
          | HOMO-LUMO GAP               3.742975251236 eV   |
           -------------------------------------------------

 * finished run on 2022/07/20 at 16:32:10.264
