   * xtb version 6.5.0 (746241f) compiled by 'ehlert@majestix' on 2022-05-15
          program call               : xtb -c 0 -u 0 e3_cl_downlike1.xyz --opt normal

   ID    Z sym.   atoms
    1    6 C      1, 2, 6, 8, 9, 12, 13, 15
    2    9 F      3, 14
    3    1 H      4, 10, 11, 16
    4   16 S      5, 7

          :  Hamiltonian                  GFN2-xTB          :
 * total energy  :   -33.3125698 Eh     change       -0.9517720E-10 Eh
 * total energy  :   -34.6052435 Eh     change       -0.1292674E+01 Eh
 * total energy  :   -34.8817559 Eh     change       -0.2765124E+00 Eh
 * total energy  :   -35.0158827 Eh     change       -0.1341268E+00 Eh
 * total energy  :   -35.0684627 Eh     change       -0.5258004E-01 Eh
 * total energy  :   -35.0844734 Eh     change       -0.1601068E-01 Eh
 * total energy  :   -35.0900513 Eh     change       -0.5577876E-02 Eh
 * total energy  :   -35.0931149 Eh     change       -0.3063639E-02 Eh
 * total energy  :   -35.0949965 Eh     change       -0.1881592E-02 Eh
 * total energy  :   -35.0955514 Eh     change       -0.5549228E-03 Eh
 * total energy  :   -35.0956938 Eh     change       -0.1423652E-03 Eh
 * total energy  :   -35.0957650 Eh     change       -0.7124745E-04 Eh
 * total energy  :   -35.0957961 Eh     change       -0.3105581E-04 Eh
 * total energy  :   -35.0958192 Eh     change       -0.2315382E-04 Eh
 * total energy  :   -35.0958355 Eh     change       -0.1631538E-04 Eh
 * total energy  :   -35.0958481 Eh     change       -0.1256562E-04 Eh
 * total energy  :   -35.0958546 Eh     change       -0.6524971E-05 Eh
 * total energy  :   -35.0958577 Eh     change       -0.3110203E-05 Eh
 * total energy  :   -35.0958592 Eh     change       -0.1441218E-05 Eh
   *** GEOMETRY OPTIMIZATION CONVERGED AFTER 19 ITERATIONS ***

 final structure:
================
16
 xtb: 6.5.0 (746241f)
C           -0.56039568987686        0.88438368947388       -0.00706074642231
C            0.01293825920736       -0.34745125450797       -0.02302801920753
F            2.99263876455519        3.80545544152261        0.08058185228733
H            6.79667930017982        1.33415698970042       -0.15695913436096
S            4.59541216003750        0.30956047283513       -0.14433903457696
C            5.75424745344208        1.57604974664145       -0.11380854540657
S            0.59588696259461        2.15306297685310       -0.00989659783950
C            5.18441750612585        2.80706854974151       -0.03440996259044
C            1.41611810903779       -0.25964611607020       -0.03750804234064
H           -1.60374562443929        1.12575651283470        0.00659415883598
H            5.72041477265346        3.73703947957206       -0.00266768007042
C            1.91460387821909        1.02240996539078       -0.03066861960904
C            3.78137353784967        2.72137132181023        0.00251418621523
F            2.20821170596774       -1.34417329053542       -0.05351891299519
C            3.28069056903124        1.44129543303829       -0.04575025352033
H           -0.52049166458523       -1.27943991830057       -0.02467464839864

          :  Hamiltonian                  GFN2-xTB          :
         :: total energy             -35.095859187545 Eh    ::
         :: gradient norm              0.000862036516 Eh/a0 ::
         :: HOMO-LUMO gap              2.660292673452 eV    ::
         :: SCC energy               -35.491096885223 Eh    ::
         :: -> dispersion             -0.018427585703 Eh    ::
         :: repulsion energy           0.395246237422 Eh    ::

    * Orbital Energies and Occupations

         #    Occupation            Energy/Eh            Energy/eV
      -------------------------------------------------------------
         1        2.0000           -0.8256008             -22.4657
       ...           ...                  ...                  ...
        19        2.0000           -0.5119672             -13.9313
        20        2.0000           -0.5072330             -13.8025
        21        2.0000           -0.4965513             -13.5118
        22        2.0000           -0.4836784             -13.1616
        23        2.0000           -0.4835084             -13.1569
        24        2.0000           -0.4800527             -13.0629
        25        2.0000           -0.4714719             -12.8294
        26        2.0000           -0.4696617             -12.7801
        27        2.0000           -0.4569943             -12.4354
        28        2.0000           -0.4430823             -12.0569
        29        2.0000           -0.4110462             -11.1851
        30        2.0000           -0.4098249             -11.1519
        31        2.0000           -0.3849651             -10.4754 (HOMO)
        32                         -0.2872012              -7.8151 (LUMO)
        33                         -0.2380951              -6.4789
        34                         -0.2245648              -6.1107
        35                         -0.2133101              -5.8045
        36                         -0.1938295              -5.2744
        37                         -0.1641632              -4.4671
        38                         -0.1490395              -4.0556
        39                         -0.1171732              -3.1884
        40                         -0.0256146              -0.6970
        41                         -0.0063240              -0.1721
        42                          0.0052614               0.1432
       ...                                ...                  ...
        62                          0.6818786              18.5549
      -------------------------------------------------------------
                  HL-Gap            0.0977640 Eh            2.6603 eV

     #   Z          covCN         q      C6AA      α(0)
     1   6 C        2.952    -0.029    28.732     8.792
     2   6 C        3.092    -0.062    29.433     8.892
     3   9 F        0.786    -0.213    11.366     3.982
     4   1 H        0.927     0.063     2.169     2.303
     5  16 S        2.342     0.033   139.730    19.895
     6   6 C        2.952    -0.029    28.733     8.792
     7  16 S        2.344     0.033   139.729    19.895
     8   6 C        3.092    -0.062    29.435     8.893
     9   6 C        3.006     0.148    24.777     8.165
    10   1 H        0.927     0.063     2.168     2.303
    11   1 H        0.926     0.064     2.152     2.294
    12   6 C        3.007    -0.003    28.078     8.692
    13   6 C        3.004     0.148    24.776     8.165
    14   9 F        0.786    -0.213    11.367     3.982
    15   6 C        3.006    -0.003    28.078     8.692
    16   1 H        0.926     0.064     2.152     2.294

Wiberg/Mayer (AO) data.
largest (>0.10) Wiberg bond orders for each atom

     #   Z sym  total        # sym  WBO       # sym  WBO       # sym  WBO
 ---------------------------------------------------------------------------
     1   6 C    3.939 --     2 C    1.598     7 S    1.208    10 H    0.969
     2   6 C    3.984 --     1 C    1.598     9 C    1.270    16 H    0.962
     3   9 F    1.112 --    13 C    0.961
     4   1 H    0.996 --     6 C    0.969
     5  16 S    2.642 --     6 C    1.208    15 C    1.140
     6   6 C    3.939 --     8 C    1.598     5 S    1.208     4 H    0.969
     7  16 S    2.642 --     1 C    1.208    12 C    1.140
     8   6 C    3.984 --     6 C    1.598    13 C    1.270    11 H    0.962
     9   6 C    3.877 --    12 C    1.449     2 C    1.270    14 F    0.960
    10   1 H    0.996 --     1 C    0.969
    11   1 H    0.996 --     8 C    0.962
    12   6 C    3.953 --     9 C    1.449    15 C    1.157     7 S    1.140
    13   6 C    3.877 --    15 C    1.449     8 C    1.270     3 F    0.961
    14   9 F    1.113 --     9 C    0.960
    15   6 C    3.953 --    13 C    1.449    12 C    1.157     5 S    1.140
    16   1 H    0.996 --     2 C    0.962
 ---------------------------------------------------------------------------

molecular dipole:
                 x           y           z       tot (Debye)
 q only:       -0.002       0.000      -0.037
   full:       -0.001      -0.001      -0.025       0.063

           -------------------------------------------------
          | TOTAL ENERGY              -35.095859187545 Eh   |
          | GRADIENT NORM               0.000862036516 Eh/α |
          | HOMO-LUMO GAP               2.660292673452 eV   |
           -------------------------------------------------

 * finished run on 2022/07/14 at 15:23:24.730
