   * xtb version 6.5.0 (746241f) compiled by 'ehlert@majestix' on 2022-05-15
          program call               : xtb -c -1 -u 1 naphthalene.xyz --opt --molden

   ID    Z sym.   atoms
    1    6 C      1-10
    2    1 H      11-18

          :  Hamiltonian                  GFN2-xTB          :
 * total energy  :   -25.6358079 Eh     change       -0.1403407E-08 Eh
 * total energy  :   -25.6378331 Eh     change       -0.2025228E-02 Eh
 * total energy  :   -25.6380182 Eh     change       -0.1850397E-03 Eh
 * total energy  :   -25.6380328 Eh     change       -0.1461758E-04 Eh
 * total energy  :   -25.6380355 Eh     change       -0.2708367E-05 Eh
   *** GEOMETRY OPTIMIZATION CONVERGED AFTER 5 ITERATIONS ***

 final structure:
================
18
 xtb: 6.5.0 (746241f)
C           -1.23680519098682       -1.39100786905630       -0.00479189873520
C           -0.00278158735244       -0.71527942735255       -0.00416267520183
C            1.23066291410658       -1.39206168265271       -0.00384774005828
C            2.43962649872596       -0.69017540947939       -0.00320336733154
C            2.44021446790027        0.68690138858014       -0.00286810721623
C            1.23185054803159        1.38981904898110       -0.00318288422702
C           -0.00217139331261        0.71409095262519       -0.00383533245773
C           -1.23561737079532        1.39087372008997       -0.00418464856009
C           -2.44458310796611        0.68898658024930       -0.00481148670239
C           -2.44517152292590       -0.68808942047462       -0.00510628294290
H           -1.24366008988377       -2.47669077768292       -0.00503796301394
H            1.23658918286616       -2.47774978961735       -0.00410769696238
H            3.37825039283039       -1.23912453967804       -0.00297062633979
H            3.37930926276961        1.23504401025748       -0.00236572806975
H            1.23870515936181        2.47550232771825       -0.00292093712883
H           -1.24154692862118        2.47656144262095       -0.00394936043972
H           -3.38320722119611        1.23793432700273       -0.00506458302286
H           -3.38426401355212       -1.23623488213122       -0.00558868158951

          :  Hamiltonian                  GFN2-xTB          :
         :: total energy             -25.638035481112 Eh    ::
         :: gradient norm              0.000784022342 Eh/a0 ::
         :: HOMO-LUMO gap              0.985799899967 eV    ::
         :: SCC energy               -26.123081684460 Eh    ::
         :: -> dispersion             -0.018590520940 Eh    ::
         :: repulsion energy           0.485010365121 Eh    ::

    * Orbital Energies and Occupations

         #    Occupation            Energy/Eh            Energy/eV
      -------------------------------------------------------------
         1        2.0000           -0.4483993             -12.2016
       ...           ...                  ...                  ...
        13        2.0000           -0.2976693              -8.1000
        14        2.0000           -0.2911295              -7.9220
        15        2.0000           -0.2851728              -7.7599
        16        2.0000           -0.2788951              -7.5891
        17        2.0000           -0.2783305              -7.5738
        18        2.0000           -0.2594960              -7.0612
        19        2.0000           -0.2565623              -6.9814
        20        2.0000           -0.2285760              -6.2199
        21        2.0000           -0.2279548              -6.2030
        22        2.0000           -0.2238778              -6.0920
        23        2.0000           -0.2092105              -5.6929
        24        2.0000           -0.1747616              -4.7555
        25        1.0000           -0.0693965              -1.8884 (HOMO)
        26                         -0.0331691              -0.9026 (LUMO)
        27                          0.0061973               0.1686
        28                          0.0450036               1.2246
        29                          0.1362191               3.7067
        30                          0.2835684               7.7163
        31                          0.2840975               7.7307
        32                          0.3027146               8.2373
        33                          0.3085029               8.3948
        34                          0.3390635               9.2264
        35                          0.3508674               9.5476
        36                          0.3566842               9.7059
       ...                                ...                  ...
        48                          0.8869382              24.1348
      -------------------------------------------------------------
                  HL-Gap            0.0362275 Eh            0.9858 eV

     #   Z          covCN         q      C6AA      α(0)
     1   6 C        2.917    -0.093    30.332     9.031
     2   6 C        2.977    -0.004    28.123     8.699
     3   6 C        2.917    -0.093    30.332     9.031
     4   6 C        2.910    -0.063    29.575     8.918
     5   6 C        2.910    -0.063    29.575     8.918
     6   6 C        2.917    -0.093    30.332     9.031
     7   6 C        2.977    -0.004    28.123     8.699
     8   6 C        2.917    -0.093    30.332     9.031
     9   6 C        2.910    -0.063    29.575     8.918
    10   6 C        2.910    -0.063    29.575     8.918
    11   1 H        0.925    -0.044     3.951     3.108
    12   1 H        0.925    -0.044     3.951     3.108
    13   1 H        0.925    -0.048     4.033     3.141
    14   1 H        0.925    -0.048     4.033     3.141
    15   1 H        0.925    -0.044     3.951     3.108
    16   1 H        0.925    -0.044     3.951     3.108
    17   1 H        0.925    -0.048     4.033     3.141
    18   1 H        0.925    -0.048     4.033     3.141

Wiberg/Mayer (AO) data.
largest (>0.10) Wiberg bond orders for each atom

     #   Z sym  total        # sym  WBO       # sym  WBO       # sym  WBO
 ---------------------------------------------------------------------------
     1   6 C    3.775 --    10 C    1.361     2 C    1.301    11 H    0.970
     2   6 C    3.989 --     3 C    1.301     1 C    1.301     7 C    1.220
     3   6 C    3.776 --     4 C    1.361     2 C    1.301    12 H    0.970
     4   6 C    3.917 --     5 C    1.456     3 C    1.361    13 H    0.970
     5   6 C    3.917 --     4 C    1.456     6 C    1.361    14 H    0.970
     6   6 C    3.776 --     5 C    1.361     7 C    1.301    15 H    0.970
     7   6 C    3.989 --     6 C    1.301     8 C    1.301     2 C    1.220
     8   6 C    3.775 --     9 C    1.361     7 C    1.301    16 H    0.970
     9   6 C    3.917 --    10 C    1.456     8 C    1.361    17 H    0.970
    10   6 C    3.917 --     9 C    1.456     1 C    1.361    18 H    0.970
    11   1 H    0.998 --     1 C    0.970
    12   1 H    0.998 --     3 C    0.970
    13   1 H    0.997 --     4 C    0.970
    14   1 H    0.997 --     5 C    0.970
    15   1 H    0.998 --     6 C    0.970
    16   1 H    0.998 --     8 C    0.970
    17   1 H    0.997 --     9 C    0.970
    18   1 H    0.997 --    10 C    0.970
 ---------------------------------------------------------------------------

molecular dipole:
                 x           y           z       tot (Debye)
 q only:        0.005       0.001       0.008
   full:        0.005       0.001       0.008       0.023

           -------------------------------------------------
          | TOTAL ENERGY              -25.638035481112 Eh   |
          | GRADIENT NORM               0.000784022342 Eh/α |
          | HOMO-LUMO GAP               0.985799899967 eV   |
           -------------------------------------------------

 * finished run on 2022/07/20 at 14:34:19.723
