   * xtb version 6.5.0 (746241f) compiled by 'ehlert@majestix' on 2022-05-15
          program call               : xtb -c 0 -u 0 --opt --molden oligothiophene_n5.xyz

   ID    Z sym.   atoms
    1    6 C      1, 2, 4-20, 25
    2   16 S      3, 21-24
    3    1 H      26-37

          :  Hamiltonian                  GFN2-xTB          :
 * total energy  :   -56.3510036 Eh     change       -0.6856723E-08 Eh
 * total energy  :   -60.8076687 Eh     change       -0.4456665E+01 Eh
 * total energy  :   -62.3887644 Eh     change       -0.1581096E+01 Eh
 * total energy  :   -63.4627449 Eh     change       -0.1073980E+01 Eh
 * total energy  :   -64.1457630 Eh     change       -0.6830181E+00 Eh
 * total energy  :   -64.5104260 Eh     change       -0.3646630E+00 Eh
 * total energy  :   -64.6971225 Eh     change       -0.1866965E+00 Eh
 * total energy  :   -64.8086574 Eh     change       -0.1115349E+00 Eh
 * total energy  :   -64.8895343 Eh     change       -0.8087690E-01 Eh
 * total energy  :   -64.9566118 Eh     change       -0.6707752E-01 Eh
 * total energy  :   -65.1451012 Eh     change       -0.1568392E-04 Eh
 * total energy  :   -65.1451147 Eh     change       -0.1346602E-04 Eh
 * total energy  :   -65.1451307 Eh     change       -0.1595343E-04 Eh
 * total energy  :   -65.1451446 Eh     change       -0.1391286E-04 Eh
 * total energy  :   -65.1451560 Eh     change       -0.1139468E-04 Eh
 * total energy  :   -65.1451680 Eh     change       -0.1198725E-04 Eh
 * total energy  :   -65.1451821 Eh     change       -0.1418874E-04 Eh
 * total energy  :   -65.1451937 Eh     change       -0.1153889E-04 Eh
 * total energy  :   -65.1451974 Eh     change       -0.3754387E-05 Eh
   *** GEOMETRY OPTIMIZATION CONVERGED AFTER 37 ITERATIONS ***

 final structure:
================
37
 xtb: 6.5.0 (746241f)
C           -0.05796668638333       10.30053018662039        3.46950288097165
C            0.86468379170497       11.00949740352399        2.76737309407729
S            1.27432419318452       10.25242220093362        1.28009078160052
C            0.17328803019822        8.94136795319786        1.60542971699939
C            0.01917199586825        7.87027853320354        0.67890581389852
C            0.65863442436122        7.68484314756809       -0.52388830233017
C            0.27173348278676        6.51690071964999       -1.18586479681452
C           -0.67270100445646        5.78701019032674       -0.50166384492597
C           -1.28179551739680        4.55989999384508       -0.87875418983340
C           -2.24600259823911        3.84335236201182       -0.20700878605863
C           -2.62532252983765        2.67073167344495       -0.86274093855885
C           -1.95808028189364        2.46537281471928       -2.04891540816445
C           -2.09321485440384        1.38373833528561       -2.96039876159870
C           -1.41341765290775        1.16893826054467       -4.13708135995856
C           -1.79371697159904       -0.00477849500229       -4.79264818668182
C           -2.77145103131954       -0.70948648414223       -4.13125274820060
C           -3.38806236785405       -1.93568873416587       -4.51283053504755
C           -4.36690341630599       -2.63827327879286       -3.85664997662821
C           -4.74530864111615       -3.81543960493622       -4.52678498488739
C           -4.05836402777181       -4.00569483817927       -5.68386602754741
S           -2.92785134226831       -2.74700583601319       -5.98494901447580
S           -3.23221583639920        0.09934583050114       -2.65907922367747
S           -0.83374462568733        3.75970634993111       -2.36053307538904
S           -1.09175873693806        6.56765254959964        0.99924143047443
C           -0.45488118037640        9.12260017438897        2.81162120489645
H           -0.44239477417729       10.60839745283135        4.42530952146978
H            1.33571222914514       11.93581538018597        3.02917328353379
H            1.38464259731593        8.38156112508852       -0.90430145300445
H            0.66281850534679        6.20427637025397       -2.13796232028061
H           -2.65681235833094        4.17074960826136        0.73171885729464
H           -3.36453742573930        1.98294016804680       -0.49171665263133
H           -0.66397515864516        1.84896620423914       -4.50185274094203
H           -1.37252020107698       -0.33888122642229       -5.72441125198023
H           -4.79195390832598       -2.30890060394933       -2.92516365428624
H           -5.49733217460298       -4.49293443947911       -4.16394714532795
H           -4.14321727640254       -4.81073233508081       -6.38617850862338
H           -1.17459666945610        8.42487088795886        3.20147730263754

          :  Hamiltonian                  GFN2-xTB          :
         :: total energy             -65.145197433825 Eh    ::
         :: gradient norm              0.000218412481 Eh/a0 ::
         :: HOMO-LUMO gap              1.614881508814 eV    ::
         :: SCC energy               -66.142367311854 Eh    ::
         :: -> dispersion             -0.052603979748 Eh    ::
         :: repulsion energy           0.998141043847 Eh    ::

    * Orbital Energies and Occupations

         #    Occupation            Energy/Eh            Energy/eV
      -------------------------------------------------------------
         1        2.0000           -0.7354623             -20.0129
       ...           ...                  ...                  ...
        49        2.0000           -0.4506220             -12.2620
        50        2.0000           -0.4477956             -12.1851
        51        2.0000           -0.4460035             -12.1364
        52        2.0000           -0.4451025             -12.1119
        53        2.0000           -0.4250806             -11.5670
        54        2.0000           -0.4067875             -11.0693
        55        2.0000           -0.4036292             -10.9833
        56        2.0000           -0.4030667             -10.9680
        57        2.0000           -0.4014444             -10.9239
        58        2.0000           -0.4010623             -10.9135
        59        2.0000           -0.3970416             -10.8041
        60        2.0000           -0.3756992             -10.2233
        61        2.0000           -0.3548702              -9.6565 (HOMO)
        62                         -0.2955244              -8.0416 (LUMO)
        63                         -0.2735113              -7.4426
        64                         -0.2493014              -6.7838
        65                         -0.2257214              -6.1422
        66                         -0.2203891              -5.9971
        67                         -0.2171878              -5.9100
        68                         -0.2120326              -5.7697
        69                         -0.2047044              -5.5703
        70                         -0.2038741              -5.5477
        71                         -0.1981188              -5.3911
        72                         -0.1853109              -5.0426
       ...                                ...                  ...
       137                          0.7045964              19.1730
      -------------------------------------------------------------
                  HL-Gap            0.0593458 Eh            1.6149 eV

     #   Z          covCN         q      C6AA      α(0)
     1   6 C        3.107    -0.041    28.875     8.804
     2   6 C        2.941    -0.019    28.486     8.753
     3  16 S        2.327    -0.030   142.279    20.076
     4   6 C        3.024     0.020    27.538     8.608
     5   6 C        3.022     0.022    27.489     8.600
     6   6 C        3.097    -0.048    29.061     8.835
     7   6 C        3.096    -0.048    29.062     8.835
     8   6 C        3.023     0.022    27.497     8.601
     9   6 C        3.023     0.022    27.488     8.600
    10   6 C        3.096    -0.047    29.057     8.834
    11   6 C        3.096    -0.047    29.057     8.834
    12   6 C        3.023     0.022    27.488     8.600
    13   6 C        3.023     0.022    27.497     8.601
    14   6 C        3.096    -0.048    29.062     8.835
    15   6 C        3.097    -0.048    29.061     8.835
    16   6 C        3.022     0.022    27.489     8.600
    17   6 C        3.024     0.020    27.538     8.608
    18   6 C        3.110    -0.050    29.094     8.837
    19   6 C        3.107    -0.041    28.875     8.804
    20   6 C        2.941    -0.019    28.485     8.753
    21  16 S        2.327    -0.030   142.279    20.076
    22  16 S        2.345    -0.044   142.873    20.118
    23  16 S        2.344    -0.044   142.857    20.117
    24  16 S        2.345    -0.044   142.872    20.118
    25   6 C        3.110    -0.050    29.093     8.837
    26   1 H        0.926     0.040     2.455     2.450
    27   1 H        0.926     0.046     2.371     2.408
    28   1 H        0.926     0.045     2.381     2.413
    29   1 H        0.926     0.045     2.387     2.416
    30   1 H        0.926     0.045     2.385     2.415
    31   1 H        0.926     0.045     2.385     2.415
    32   1 H        0.926     0.045     2.387     2.416
    33   1 H        0.926     0.045     2.381     2.413
    34   1 H        0.926     0.043     2.409     2.427
    35   1 H        0.926     0.039     2.455     2.450
    36   1 H        0.926     0.046     2.371     2.408
    37   1 H        0.926     0.043     2.409     2.427

Wiberg/Mayer (AO) data.
largest (>0.10) Wiberg bond orders for each atom

     #   Z sym  total        # sym  WBO       # sym  WBO       # sym  WBO
 ---------------------------------------------------------------------------
     1   6 C    3.987 --     2 C    1.602    25 C    1.302    26 H    0.965
     2   6 C    3.924 --     1 C    1.602     3 S    1.193    27 H    0.970
     3  16 S    2.600 --     2 C    1.193     4 C    1.124
     4   6 C    3.952 --    25 C    1.504     5 C    1.165     3 S    1.124
     5   6 C    3.929 --     6 C    1.477     4 C    1.165    24 S    1.122
     6   6 C    3.985 --     5 C    1.477     7 C    1.345    28 H    0.961
     7   6 C    3.970 --     8 C    1.469     6 C    1.345    29 H    0.961
     8   6 C    3.939 --     7 C    1.469     9 C    1.178    24 S    1.118
     9   6 C    3.931 --    10 C    1.465     8 C    1.178    23 S    1.118
    10   6 C    3.972 --     9 C    1.465    11 C    1.351    30 H    0.961
    11   6 C    3.972 --    12 C    1.465    10 C    1.351    31 H    0.961
    12   6 C    3.931 --    11 C    1.465    13 C    1.178    23 S    1.118
    13   6 C    3.939 --    14 C    1.469    12 C    1.178    22 S    1.118
    14   6 C    3.970 --    13 C    1.469    15 C    1.345    32 H    0.961
    15   6 C    3.985 --    16 C    1.477    14 C    1.345    33 H    0.961
    16   6 C    3.929 --    15 C    1.477    17 C    1.165    22 S    1.122
    17   6 C    3.952 --    18 C    1.504    16 C    1.165    21 S    1.124
    18   6 C    3.969 --    17 C    1.504    19 C    1.302    34 H    0.962
    19   6 C    3.987 --    20 C    1.602    18 C    1.302    35 H    0.965
    20   6 C    3.924 --    19 C    1.602    21 S    1.193    36 H    0.970
    21  16 S    2.600 --    20 C    1.193    17 C    1.124
    22  16 S    2.562 --    16 C    1.122    13 C    1.118
    23  16 S    2.556 --    12 C    1.118     9 C    1.118
    24  16 S    2.562 --     5 C    1.122     8 C    1.118
    25   6 C    3.969 --     4 C    1.504     1 C    1.302    37 H    0.962
    26   1 H    0.998 --     1 C    0.965
    27   1 H    0.997 --     2 C    0.970
    28   1 H    0.998 --     6 C    0.961
    29   1 H    0.998 --     7 C    0.961
    30   1 H    0.998 --    10 C    0.961
    31   1 H    0.998 --    11 C    0.961
    32   1 H    0.998 --    14 C    0.961
    33   1 H    0.998 --    15 C    0.961
    34   1 H    0.998 --    18 C    0.962
    35   1 H    0.998 --    19 C    0.965
    36   1 H    0.997 --    20 C    0.970
    37   1 H    0.998 --    25 C    0.962
 ---------------------------------------------------------------------------

molecular dipole:
                 x           y           z       tot (Debye)
 q only:       -0.056      -0.019       0.066
   full:       -0.224      -0.073       0.260       0.892

           -------------------------------------------------
          | TOTAL ENERGY              -65.145197433825 Eh   |
          | GRADIENT NORM               0.000218412481 Eh/α |
          | HOMO-LUMO GAP               1.614881508814 eV   |
           -------------------------------------------------

 * finished run on 2022/07/20 at 15:45:11.066
