   * xtb version 6.5.0 (746241f) compiled by 'ehlert@majestix' on 2022-05-15
          program call               : xtb -c 0 -u 0 --opt --molden tb.xyz

   ID    Z sym.   atoms
    1   23 V      1
    2    9 F      2-6

          :  Hamiltonian                  GFN2-xTB          :
 * total energy  :   -25.7478441 Eh     change       -0.2045333E-09 Eh
 * total energy  :   -25.7871936 Eh     change       -0.3934951E-01 Eh
 * total energy  :   -25.8350997 Eh     change       -0.4790602E-01 Eh
 * total energy  :   -25.8351214 Eh     change       -0.2168945E-04 Eh
 * total energy  :   -25.8351675 Eh     change       -0.4610421E-04 Eh
 * total energy  :   -25.8351674 Eh     change        0.4728783E-07 Eh
 * total energy  :   -25.8351670 Eh     change        0.3779394E-06 Eh
 * total energy  :   -25.8351677 Eh     change       -0.6779994E-06 Eh
   *** GEOMETRY OPTIMIZATION CONVERGED AFTER 8 ITERATIONS ***

 final structure:
================
6
 xtb: 6.5.0 (746241f)
V            0.03033070169655        1.89716300333148       -0.03404925508798
F           -0.04194970866723        1.22684386197887       -1.53220612869618
F            0.10260967841488        2.56792816158492        1.46390229599804
F            1.17873544380559        0.79471547313270        0.40400591937677
F            0.48158267548546        3.33853886420736       -0.70105238247426
F           -1.56930879073526        1.55841063576468        0.19509955088362

          :  Hamiltonian                  GFN2-xTB          :
         :: total energy             -25.835167715651 Eh    ::
         :: gradient norm              0.000096607341 Eh/a0 ::
         :: HOMO-LUMO gap              3.822644780711 eV    ::
         :: SCC energy               -25.881871817813 Eh    ::
         :: -> dispersion             -0.002596301429 Eh    ::
         :: repulsion energy           0.046703692472 Eh    ::

    * Orbital Energies and Occupations

         #    Occupation            Energy/Eh            Energy/eV
      -------------------------------------------------------------
         1        2.0000           -0.9705009             -26.4087
       ...           ...                  ...                  ...
         8        2.0000           -0.6085986             -16.5608
         9        2.0000           -0.6085967             -16.5608
        10        2.0000           -0.6010017             -16.3541
        11        2.0000           -0.5866775             -15.9643
        12        2.0000           -0.5850830             -15.9209
        13        2.0000           -0.5850827             -15.9209
        14        2.0000           -0.5811975             -15.8152
        15        2.0000           -0.5778314             -15.7236
        16        2.0000           -0.5666467             -15.4192
        17        2.0000           -0.5666455             -15.4192
        18        2.0000           -0.5642749             -15.3547
        19        2.0000           -0.5638928             -15.3443
        20        2.0000           -0.5638837             -15.3441 (HOMO)
        21                         -0.4234041             -11.5214 (LUMO)
        22                         -0.4233975             -11.5212
        23                         -0.3708515             -10.0914
        24                         -0.3708471             -10.0913
        25                         -0.0592488              -1.6122
        26                          0.4327515              11.7758
        27                          0.4327557              11.7759
        28                          0.4918212              13.3831
        29                          0.6099833              16.5985
      -------------------------------------------------------------
                  HL-Gap            0.1404796 Eh            3.8226 eV

     #   Z          covCN         q      C6AA      α(0)
     1  23 V        3.373     0.717   113.326    19.222
     2   9 F        0.675    -0.155    10.795     3.879
     3   9 F        0.675    -0.155    10.795     3.879
     4   9 F        0.675    -0.136    10.612     3.846
     5   9 F        0.675    -0.136    10.612     3.846
     6   9 F        0.675    -0.136    10.612     3.846

Wiberg/Mayer (AO) data.
largest (>0.10) Wiberg bond orders for each atom

     #   Z sym  total        # sym  WBO       # sym  WBO       # sym  WBO
 ---------------------------------------------------------------------------
     1  23 V    6.344 --     4 F    1.291     6 F    1.291     5 F    1.291
                             2 F    1.236     3 F    1.236
     2   9 F    1.475 --     1 V    1.236
     3   9 F    1.475 --     1 V    1.236
     4   9 F    1.505 --     1 V    1.291
     5   9 F    1.505 --     1 V    1.291
     6   9 F    1.505 --     1 V    1.291
 ---------------------------------------------------------------------------

molecular dipole:
                 x           y           z       tot (Debye)
 q only:       -0.000      -0.000      -0.000
   full:       -0.000      -0.001       0.000       0.001

           -------------------------------------------------
          | TOTAL ENERGY              -25.835167715651 Eh   |
          | GRADIENT NORM               0.000096607341 Eh/α |
          | HOMO-LUMO GAP               3.822644780711 eV   |
           -------------------------------------------------

 * finished run on 2022/07/20 at 16:38:39.044
