 Gaussian 16, Revision B.01,
 Gaussian 16:  ES64L-G16RevB.01 20-Dec-2017

 -----------------------------
 #P opt wb97xd/def2tzvp nosymm
 -----------------------------

 -----
 TITLE
 -----
 Symbolic Z-matrix:
 Charge =  0 Multiplicity = 1

 SCF Done:  E(RwB97XD) =  -1.17548751278     A.U. after    7 cycles
 SCF Done:  E(RwB97XD) =  -1.17616758153     A.U. after    5 cycles
 SCF Done:  E(RwB97XD) =  -1.17616792512     A.U. after    5 cycles
 Optimization completed.
    -- Stationary point found.

                          Input orientation:
 ---------------------------------------------------------------------
 Center     Atomic      Atomic             Coordinates (Angstroms)
 Number     Number       Type             X           Y           Z
 ---------------------------------------------------------------------
      1          1           0       -2.114819   -0.214819    2.114819
      2          1           0       -1.685181    0.214819    1.685181
 ---------------------------------------------------------------------

 Alpha  occ. eigenvalues --   -0.51650
 Alpha virt. eigenvalues --    0.13939   0.28583   0.55369   1.25442   1.25442
 Alpha virt. eigenvalues --    1.70495   2.03127   2.03127   2.09549   2.51814
 Alpha virt. eigenvalues --    3.52382

 Mulliken charges:
               1
     1  H    0.000000
     2  H    0.000000
 Sum of Mulliken charges =   0.00000

 Dipole moment (field-independent basis, Debye):
    X=              0.0000    Y=              0.0000    Z=              0.0000  Tot=              0.0000
 Quadrupole moment (field-independent basis, Debye-Ang):
   XX=             -1.8873   YY=             -1.8873   ZZ=             -1.8873
   XY=              0.1841   XZ=             -0.1841   YZ=             -0.1841

 Normal termination of Gaussian 16 at Wed Jul 13 05:22:52 2022.
