   * xtb version 6.5.0 (746241f) compiled by 'ehlert@majestix' on 2022-05-15
          program call               : xtb -c 0 -u 2 o2.xyz --opt normal

   ID    Z sym.   atoms
    1    8 O      1, 2

          :  Hamiltonian                  GFN2-xTB          :
 * total energy  :    -7.8589169 Eh     change        0.8881784E-15 Eh
 * total energy  :    -7.9006468 Eh     change       -0.4172982E-01 Eh
 * total energy  :    -7.8998890 Eh     change        0.7577505E-03 Eh
 * total energy  :    -7.9040254 Eh     change       -0.4136418E-02 Eh
 * total energy  :    -7.9041160 Eh     change       -0.9057696E-04 Eh
 * total energy  :    -7.9041183 Eh     change       -0.2308476E-05 Eh
   *** GEOMETRY OPTIMIZATION CONVERGED AFTER 6 ITERATIONS ***

 final structure:
================
2
 xtb: 6.5.0 (746241f)
O           -1.75959205229715        1.36604766561909       -0.00000000000000
O           -0.56100794770285        1.53025233438091       -0.00000000000000

          :  Hamiltonian                  GFN2-xTB          :
         :: total energy              -7.904118324116 Eh    ::
         :: gradient norm              0.000071334793 Eh/a0 ::
         :: HOMO-LUMO gap             15.429828956776 eV    ::
         :: SCC energy                -7.912326005959 Eh    ::
         :: -> dispersion             -0.000194535930 Eh    ::
         :: repulsion energy           0.008207681842 Eh    ::

    * Orbital Energies and Occupations

         #    Occupation            Energy/Eh            Energy/eV
      -------------------------------------------------------------
         1        2.0000           -0.8271393             -22.5076
         2        2.0000           -0.7368761             -20.0514
         3        2.0000           -0.6614549             -17.9991
         4        2.0000           -0.6614549             -17.9991
         5        2.0000           -0.6381652             -17.3654
         6        1.0000           -0.4428731             -12.0512
         7        1.0000           -0.4428731             -12.0512 (HOMO)
         8                          0.1241627               3.3786 (LUMO)
      -------------------------------------------------------------
                  HL-Gap            0.5670358 Eh           15.4298 eV

     #   Z          covCN         q      C6AA      α(0)
     1   8 O        0.979    -0.000    15.074     5.208
     2   8 O        0.979     0.000    15.074     5.208

Wiberg/Mayer (AO) data.
largest (>0.10) Wiberg bond orders for each atom

     #   Z sym  total        # sym  WBO       # sym  WBO       # sym  WBO
 ---------------------------------------------------------------------------
     1   8 O    1.500 --     2 O    1.500
     2   8 O    1.500 --     1 O    1.500
 ---------------------------------------------------------------------------

molecular dipole:
                 x           y           z       tot (Debye)
 q only:        0.000       0.000       0.000
   full:       -0.000       0.000      -0.000       0.000

           -------------------------------------------------
          | TOTAL ENERGY               -7.904118324116 Eh   |
          | GRADIENT NORM               0.000071334793 Eh/α |
          | HOMO-LUMO GAP              15.429828956776 eV   |
           -------------------------------------------------

 * finished run on 2022/07/14 at 16:02:42.175
