   * xtb version 6.5.0 (746241f) compiled by 'ehlert@majestix' on 2022-05-15
          program call               : xtb -c 0 -u 0 abc.xyz --opt normal

   ID    Z sym.   atoms
    1    6 C      1, 2, 6, 8, 9, 12, 13, 15
    2    9 F      3, 14
    3    1 H      4, 10, 11, 16
    4   16 S      5, 7

          :  Hamiltonian                  GFN2-xTB          :
 * total energy  :   -33.4112362 Eh     change       -0.6347989E-10 Eh
 * total energy  :   -34.6195889 Eh     change       -0.1208353E+01 Eh
 * total energy  :   -34.8968996 Eh     change       -0.2773106E+00 Eh
 * total energy  :   -35.0123385 Eh     change       -0.1154389E+00 Eh
 * total energy  :   -35.0597523 Eh     change       -0.4741380E-01 Eh
 * total energy  :   -35.0758783 Eh     change       -0.1612607E-01 Eh
 * total energy  :   -35.0826698 Eh     change       -0.6791472E-02 Eh
 * total energy  :   -35.0862373 Eh     change       -0.3567495E-02 Eh
 * total energy  :   -35.0880453 Eh     change       -0.1808029E-02 Eh
 * total energy  :   -35.0887080 Eh     change       -0.6627202E-03 Eh
 * total energy  :   -35.0955283 Eh     change        0.1145266E-03 Eh
 * total energy  :   -35.0957803 Eh     change       -0.2520101E-03 Eh
 * total energy  :   -35.0958243 Eh     change       -0.4403283E-04 Eh
 * total energy  :   -35.0958365 Eh     change       -0.1217536E-04 Eh
 * total energy  :   -35.0958491 Eh     change       -0.1261654E-04 Eh
 * total energy  :   -35.0958570 Eh     change       -0.7872578E-05 Eh
 * total energy  :   -35.0958678 Eh     change       -0.1079406E-04 Eh
 * total energy  :   -35.0958738 Eh     change       -0.6041830E-05 Eh
 * total energy  :   -35.0958766 Eh     change       -0.2722751E-05 Eh
   *** GEOMETRY OPTIMIZATION CONVERGED AFTER 51 ITERATIONS ***

 final structure:
================
16
 xtb: 6.5.0 (746241f)
C           -0.18178136629769        0.82743005504707       -0.95268443378096
C            0.36072525840079       -0.39011170895504       -0.68887472295805
F            3.19384493057853        3.81574507814511       -0.04907865762007
H           -0.14625351215795       -1.33091381618937       -0.79369068387213
S            4.70689999474737        0.35975638447150        0.73092526441550
C            5.80543675737905        1.64935944325449        1.00955923448026
S            0.91645704611813        2.11704568537895       -0.67452548772190
C            5.26767547245828        2.86600115334380        0.73256761150642
C            1.69256595273089       -0.27416210346177       -0.25287867231413
H           -1.17172190800733        1.04803841412151       -1.29700260467095
H            6.79213995981362        1.42970263972571        1.36379169178308
C            2.16659373072045        1.01530013671692       -0.18249154462329
C            3.93878344076063        2.74980028076457        0.28758975625292
F            2.44246036721680       -1.34073788122350        0.06973471089800
C            3.46227021595524        1.46111022774179        0.22268644816526
H            5.77603365958331        3.80633601111847        0.83445209005992

          :  Hamiltonian                  GFN2-xTB          :
         :: total energy             -35.095876568474 Eh    ::
         :: gradient norm              0.000501648008 Eh/a0 ::
         :: HOMO-LUMO gap              2.658928302838 eV    ::
         :: SCC energy               -35.490947924882 Eh    ::
         :: -> dispersion             -0.018425582830 Eh    ::
         :: repulsion energy           0.395079926434 Eh    ::

    * Orbital Energies and Occupations

         #    Occupation            Energy/Eh            Energy/eV
      -------------------------------------------------------------
         1        2.0000           -0.8255498             -22.4644
       ...           ...                  ...                  ...
        19        2.0000           -0.5119737             -13.9315
        20        2.0000           -0.5072222             -13.8022
        21        2.0000           -0.4965274             -13.5112
        22        2.0000           -0.4836843             -13.1617
        23        2.0000           -0.4834971             -13.1566
        24        2.0000           -0.4800830             -13.0637
        25        2.0000           -0.4714733             -12.8294
        26        2.0000           -0.4696340             -12.7794
        27        2.0000           -0.4569382             -12.4339
        28        2.0000           -0.4431738             -12.0594
        29        2.0000           -0.4110365             -11.1849
        30        2.0000           -0.4098338             -11.1521
        31        2.0000           -0.3849500             -10.4750 (HOMO)
        32                         -0.2872362              -7.8161 (LUMO)
        33                         -0.2380452              -6.4775
        34                         -0.2246716              -6.1136
        35                         -0.2133046              -5.8043
        36                         -0.1938658              -5.2754
        37                         -0.1641383              -4.4664
        38                         -0.1491148              -4.0576
        39                         -0.1172046              -3.1893
        40                         -0.0256281              -0.6974
        41                         -0.0063379              -0.1725
        42                          0.0051935               0.1413
       ...                                ...                  ...
        62                          0.6816774              18.5494
      -------------------------------------------------------------
                  HL-Gap            0.0977138 Eh            2.6589 eV

     #   Z          covCN         q      C6AA      α(0)
     1   6 C        2.952    -0.029    28.732     8.792
     2   6 C        3.092    -0.062    29.434     8.892
     3   9 F        0.786    -0.213    11.368     3.983
     4   1 H        0.926     0.064     2.152     2.294
     5  16 S        2.342     0.033   139.733    19.895
     6   6 C        2.952    -0.029    28.731     8.792
     7  16 S        2.342     0.033   139.725    19.895
     8   6 C        3.091    -0.062    29.434     8.892
     9   6 C        3.005     0.148    24.778     8.165
    10   1 H        0.927     0.063     2.169     2.303
    11   1 H        0.926     0.063     2.169     2.303
    12   6 C        3.006    -0.003    28.078     8.692
    13   6 C        3.005     0.148    24.778     8.165
    14   9 F        0.786    -0.213    11.366     3.982
    15   6 C        3.006    -0.003    28.078     8.692
    16   1 H        0.926     0.064     2.152     2.294

Wiberg/Mayer (AO) data.
largest (>0.10) Wiberg bond orders for each atom

     #   Z sym  total        # sym  WBO       # sym  WBO       # sym  WBO
 ---------------------------------------------------------------------------
     1   6 C    3.939 --     2 C    1.598     7 S    1.208    10 H    0.969
     2   6 C    3.984 --     1 C    1.598     9 C    1.270     4 H    0.962
     3   9 F    1.112 --    13 C    0.960
     4   1 H    0.996 --     2 C    0.962
     5  16 S    2.641 --     6 C    1.208    15 C    1.140
     6   6 C    3.939 --     8 C    1.598     5 S    1.208    11 H    0.969
     7  16 S    2.642 --     1 C    1.208    12 C    1.140
     8   6 C    3.984 --     6 C    1.598    13 C    1.270    16 H    0.962
     9   6 C    3.877 --    12 C    1.449     2 C    1.270    14 F    0.961
    10   1 H    0.996 --     1 C    0.969
    11   1 H    0.996 --     6 C    0.969
    12   6 C    3.953 --     9 C    1.449    15 C    1.158     7 S    1.140
    13   6 C    3.877 --    15 C    1.449     8 C    1.270     3 F    0.960
    14   9 F    1.113 --     9 C    0.961
    15   6 C    3.953 --    13 C    1.449    12 C    1.158     5 S    1.140
    16   1 H    0.996 --     8 C    0.962
 ---------------------------------------------------------------------------

molecular dipole:
                 x           y           z       tot (Debye)
 q only:       -0.004       0.000       0.009
   full:       -0.003       0.000       0.007       0.019

           -------------------------------------------------
          | TOTAL ENERGY              -35.095876568474 Eh   |
          | GRADIENT NORM               0.000501648008 Eh/α |
          | HOMO-LUMO GAP               2.658928302838 eV   |
           -------------------------------------------------

 * finished run on 2022/07/14 at 15:23:24.021
