   * xtb version 6.5.0 (746241f) compiled by 'ehlert@majestix' on 2022-05-15
          program call               : xtb -c 0 -u 0 e5.xyz --opt normal

   ID    Z sym.   atoms
    1    6 C      1, 2, 6, 8, 9, 12, 13, 15
    2    9 F      3, 14
    3    1 H      4, 10, 11, 16
    4   16 S      5, 7

          :  Hamiltonian                  GFN2-xTB          :
 * total energy  :   -33.3185430 Eh     change       -0.7717205E-10 Eh
 * total energy  :   -34.6091737 Eh     change       -0.1290631E+01 Eh
 * total energy  :   -34.8846894 Eh     change       -0.2755157E+00 Eh
 * total energy  :   -35.0175889 Eh     change       -0.1328996E+00 Eh
 * total energy  :   -35.0692741 Eh     change       -0.5168517E-01 Eh
 * total energy  :   -35.0847415 Eh     change       -0.1546735E-01 Eh
 * total energy  :   -35.0900501 Eh     change       -0.5308630E-02 Eh
 * total energy  :   -35.0929864 Eh     change       -0.2936341E-02 Eh
 * total energy  :   -35.0948143 Eh     change       -0.1827865E-02 Eh
 * total energy  :   -35.0953603 Eh     change       -0.5460193E-03 Eh
 * total energy  :   -35.0957397 Eh     change       -0.1499040E-04 Eh
 * total energy  :   -35.0957605 Eh     change       -0.2080905E-04 Eh
 * total energy  :   -35.0958035 Eh     change       -0.4302744E-04 Eh
 * total energy  :   -35.0958200 Eh     change       -0.1652017E-04 Eh
 * total energy  :   -35.0958386 Eh     change       -0.1852864E-04 Eh
 * total energy  :   -35.0958491 Eh     change       -0.1056023E-04 Eh
 * total energy  :   -35.0958617 Eh     change       -0.1259514E-04 Eh
 * total energy  :   -35.0958721 Eh     change       -0.1040358E-04 Eh
 * total energy  :   -35.0958764 Eh     change       -0.4317203E-05 Eh
   *** GEOMETRY OPTIMIZATION CONVERGED AFTER 28 ITERATIONS ***

 final structure:
================
16
 xtb: 6.5.0 (746241f)
C           -0.58019241798710        0.89697116280917       -0.02306327256161
C           -0.00656028530461       -0.33443360169485        0.00586844173220
F            2.96506743878897        3.82327061325065        0.00198302416224
H            6.77568219891198        1.35636630907829        0.17651794881697
S            4.57774360407821        0.32711057709728        0.12804640822412
C            5.73273288352116        1.59716170723873        0.13767826380851
S            0.57489411569816        2.16691836742921       -0.01353552085226
C            5.15942736130583        2.82823356392826        0.09267727175113
C            1.39660890555038       -0.24591814859545        0.03727588422738
H           -1.62345885388676        1.13802052370191       -0.04955230191042
H            5.69201510318870        3.76071865421785        0.08964213670141
C            1.89386235620763        1.03664223644107        0.03198652651877
C            3.75657105940994        2.73936495084088        0.05033591646309
F            2.18823039370364       -1.33029287552672        0.06988996328285
C            3.25933904061721        1.45683382062552        0.06222162883148
H           -0.53926290380334       -1.26686786084185        0.00562768080418

          :  Hamiltonian                  GFN2-xTB          :
         :: total energy             -35.095876440155 Eh    ::
         :: gradient norm              0.000237402816 Eh/a0 ::
         :: HOMO-LUMO gap              2.659333989381 eV    ::
         :: SCC energy               -35.490926083500 Eh    ::
         :: -> dispersion             -0.018426417197 Eh    ::
         :: repulsion energy           0.395058200331 Eh    ::

    * Orbital Energies and Occupations

         #    Occupation            Energy/Eh            Energy/eV
      -------------------------------------------------------------
         1        2.0000           -0.8256053             -22.4659
       ...           ...                  ...                  ...
        19        2.0000           -0.5119812             -13.9317
        20        2.0000           -0.5072302             -13.8024
        21        2.0000           -0.4965430             -13.5116
        22        2.0000           -0.4836659             -13.1612
        23        2.0000           -0.4834929             -13.1565
        24        2.0000           -0.4800869             -13.0638
        25        2.0000           -0.4714601             -12.8291
        26        2.0000           -0.4696233             -12.7791
        27        2.0000           -0.4569293             -12.4337
        28        2.0000           -0.4431477             -12.0587
        29        2.0000           -0.4110237             -11.1845
        30        2.0000           -0.4098162             -11.1517
        31        2.0000           -0.3849366             -10.4747 (HOMO)
        32                         -0.2872079              -7.8153 (LUMO)
        33                         -0.2380341              -6.4772
        34                         -0.2246378              -6.1127
        35                         -0.2133011              -5.8042
        36                         -0.1938644              -5.2753
        37                         -0.1641557              -4.4669
        38                         -0.1490854              -4.0568
        39                         -0.1171788              -3.1886
        40                         -0.0256221              -0.6972
        41                         -0.0063260              -0.1721
        42                          0.0052266               0.1422
       ...                                ...                  ...
        62                          0.6817120              18.5503
      -------------------------------------------------------------
                  HL-Gap            0.0977287 Eh            2.6593 eV

     #   Z          covCN         q      C6AA      α(0)
     1   6 C        2.952    -0.029    28.732     8.792
     2   6 C        3.092    -0.062    29.434     8.892
     3   9 F        0.786    -0.213    11.366     3.982
     4   1 H        0.927     0.063     2.169     2.303
     5  16 S        2.342     0.033   139.729    19.895
     6   6 C        2.952    -0.029    28.732     8.792
     7  16 S        2.342     0.033   139.730    19.895
     8   6 C        3.092    -0.062    29.434     8.892
     9   6 C        3.004     0.148    24.778     8.165
    10   1 H        0.927     0.063     2.169     2.303
    11   1 H        0.926     0.064     2.152     2.294
    12   6 C        3.006    -0.003    28.079     8.692
    13   6 C        3.004     0.148    24.778     8.165
    14   9 F        0.786    -0.213    11.366     3.982
    15   6 C        3.006    -0.003    28.079     8.692
    16   1 H        0.926     0.064     2.152     2.294

Wiberg/Mayer (AO) data.
largest (>0.10) Wiberg bond orders for each atom

     #   Z sym  total        # sym  WBO       # sym  WBO       # sym  WBO
 ---------------------------------------------------------------------------
     1   6 C    3.939 --     2 C    1.598     7 S    1.208    10 H    0.969
     2   6 C    3.984 --     1 C    1.598     9 C    1.270    16 H    0.962
     3   9 F    1.113 --    13 C    0.961
     4   1 H    0.996 --     6 C    0.969
     5  16 S    2.641 --     6 C    1.208    15 C    1.140
     6   6 C    3.939 --     8 C    1.598     5 S    1.208     4 H    0.969
     7  16 S    2.641 --     1 C    1.208    12 C    1.140
     8   6 C    3.984 --     6 C    1.598    13 C    1.270    11 H    0.962
     9   6 C    3.877 --    12 C    1.449     2 C    1.270    14 F    0.961
    10   1 H    0.996 --     1 C    0.969
    11   1 H    0.996 --     8 C    0.962
    12   6 C    3.953 --     9 C    1.449    15 C    1.157     7 S    1.140
    13   6 C    3.877 --    15 C    1.449     8 C    1.270     3 F    0.961
    14   9 F    1.113 --     9 C    0.961
    15   6 C    3.953 --    13 C    1.449    12 C    1.157     5 S    1.140
    16   1 H    0.996 --     2 C    0.962
 ---------------------------------------------------------------------------

molecular dipole:
                 x           y           z       tot (Debye)
 q only:       -0.000       0.000       0.011
   full:       -0.000       0.000       0.008       0.021

           -------------------------------------------------
          | TOTAL ENERGY              -35.095876440155 Eh   |
          | GRADIENT NORM               0.000237402816 Eh/α |
          | HOMO-LUMO GAP               2.659333989381 eV   |
           -------------------------------------------------

 * finished run on 2022/07/14 at 15:23:25.166
